/*--------------------------------*- C++ -*----------------------------------*\
| =========                 |                                                 |
| \\      /  F ield         | OpenFOAM: The Open Source CFD Toolbox           |
|  \\    /   O peration     | Version:  2312                                  |
|   \\  /    A nd           | Website:  www.openfoam.com                      |
|    \\/     M anipulation  |                                                 |
\*---------------------------------------------------------------------------*/
FoamFile
{
    version     2.0;
    format      ascii;
    arch        "LSB;label=32;scalar=64";
    class       volScalarField;
    location    "2000";
    object      epsilon;
}
// * * * * * * * * * * * * * * * * * * * * * * * * * * * * * * * * * * * * * //

dimensions      [0 2 -3 0 0 0 0];

internalField   nonuniform List<scalar> 
109932
(
3658.34823324634
2040.78384599168
2113.30321634203
2977.27880517468
2122.45121307535
2524.74295320462
2830.53691837275
7900.0919632965
1214.79226388441
1917.55860125217
4179.55430478514
3141.37700406702
2877.96132286621
3825.57783081507
3531.54937739254
4575.15421836103
3395.33689506243
2574.05265336283
7673.94587351327
3097.19578468742
2928.01498705241
3098.79992560987
3004.81209699852
4806.79691003876
4846.96427653157
4258.87053745704
8647.5775390377
4523.20602469301
7856.16876514122
2661.08229444034
3305.9442836212
3637.62112223644
3111.51334337564
2926.55427598142
2997.44597266797
3313.23282138954
2998.78216853066
3776.2588631104
11074.4874126569
8667.65196872553
3991.62217317821
3491.74451149742
10758.9782211271
3738.32913228078
1839.60434293584
7190.90636716457
2979.22034248371
3643.5389324436
3284.12838196419
2978.84161720718
2985.89160893852
3464.30773129979
3559.33217018524
3464.05367424207
3143.23673472878
3931.84935756175
4870.60456875106
12100.9461627649
4128.4790416808
3957.43229448734
5299.0720640595
5584.06105254276
9343.48484276081
1870.72905827342
1807.64244858173
4843.55341793655
3237.33423084786
4274.77383480971
3598.80771590668
3322.70660379077
3598.03593296868
3570.86990308921
3597.39423878667
3729.94962271003
3313.31215255802
3370.65991380594
3597.40556321831
5008.72817884621
5303.85905809112
6039.74137530837
4381.94314866081
12528.9330733794
4638.55342295557
12010.1553980738
4849.75720516944
3212.14248037128
4789.47305298112
5132.73059750895
11131.1690966839
3922.41523215451
3260.54248761418
3351.03704285045
7944.57991211541
4168.28195948261
3569.72742266981
3627.46699752683
3155.67131579584
3497.18432580227
3505.15534192187
3685.71498626382
4058.92533696566
3629.03790218787
3508.48959882687
3807.69905409962
3587.74561170067
3359.56523823698
3369.06752988417
3511.11250620362
3578.17829975469
9945.1668695605
5203.97547327743
11419.4332788423
4720.43918200783
12705.6003189098
6526.67027884991
5896.49434197117
3615.481985228
10644.5294430211
6456.19752173188
3663.17622151024
6656.99343303761
4095.41401857821
3109.61401542415
4211.7529129652
6466.37697974135
3608.42204687124
3307.59809133942
9397.33884931106
6362.49289797971
3813.28391846435
3638.24172559217
3358.11268361938
3679.71313090148
3588.69873776008
4060.25203189313
4590.57573751464
3576.51484118432
3880.20280117112
3606.73742877068
3926.08554485616
3781.63155575521
3721.91200182162
3152.54563558029
3367.3341184381
3556.23383767302
3742.2908011882
8802.88247758704
4567.16624458266
14075.9768715718
4915.43954430591
6562.47832283089
5746.01264009627
9910.76585613243
4929.36663764691
3804.73004698829
5318.98120166773
9634.50896276823
6126.19516625311
3813.93954074496
3862.34837288894
3931.75735313553
5314.31149499392
3193.0595058274
4914.59826241539
4184.44301619505
5232.93889208645
3764.72029672411
3168.55822331034
3774.59778335307
11678.0046992299
5767.36649297914
5974.83513659234
4086.39187340593
3992.31171022184
3587.56460837628
3618.47388701919
3923.98813960721
3918.30173502978
4383.574325984
4182.6903410396
4106.9971494627
4559.43878184922
4820.69633249992
3828.20407315952
3974.68229679366
3993.10205701235
3971.82833264696
4366.40484587505
3743.09221827937
3714.96595487657
3840.29645994498
3124.01951722367
3658.24283933549
3224.22795414419
3702.76227708128
3825.80648924465
11450.1150711715
6517.36564223882
15316.3291445812
6217.09311164936
9778.48260230303
4754.02938947609
7047.28976976288
8954.36573052978
6194.15208294585
8912.83348007976
5958.94514136638
14606.2036029584
5226.75326020941
3856.14882893484
4178.04681991781
4886.86750405489
3539.39927135286
16743.0324910362
11885.4494575449
9202.55534596258
4872.46804739847
4395.09914108844
3307.95557766905
3727.80317114548
4514.96426537032
12348.3187653924
5061.32690937143
4165.21480530285
4465.66814088526
4435.68541842641
3716.10279841943
3825.49900555248
3517.02120375956
4083.68981927329
3993.93908198719
3980.68796094125
4361.1777698625
4609.51179585636
4484.53995231684
4453.4331161715
4366.136656922
4764.45251700047
5991.19164438042
4671.16655435048
4016.63422272109
4171.88024772562
4047.18460121932
4282.74452346821
4082.32105761529
4177.33597968407
4661.21816235113
3889.27794634875
3856.74341623182
3892.54253491902
3938.0053833191
3145.24692724791
3583.0954999133
3793.88084310943
3351.8065307398
3754.7411405461
3818.90948402248
4093.18864840355
11501.9122270392
6023.22670064209
7909.02017932632
11952.8846632661
15067.61837429
5038.6323437018
6284.64774459988
13828.0432746672
6829.3464815355
4840.98748580837
11922.1464825775
4942.19885069837
8251.66272992659
4127.28611979132
4000.10059348707
4196.20408689604
12127.3350121635
5204.43925821055
3675.30574319727
4886.76896134955
7903.22878596871
6193.85617208404
5233.83241189407
5067.71572963209
4580.25217288408
4777.01565498504
4308.90033786857
3188.58269130457
3316.06904716471
4358.43642835129
3679.52711171637
10734.4367054836
12618.2483848969
4036.56102513985
4078.70771924851
4525.43642294554
4922.85716073958
4621.85252055409
3724.32948299758
4040.12296070251
3533.77216785702
3859.2967195345
4442.27006886928
4141.37055619583
4384.39728322537
4848.33099178816
4765.44015361312
5050.07811493644
4532.01461941295
4783.68064510155
4598.36878303076
5337.9458623464
8232.51226379671
4765.14723434199
4175.75112086454
4399.29511795682
3965.78949751302
4290.00200215731
4488.72683875606
4271.05054534149
4270.97595407672
4425.32018728624
4301.44533106184
4721.09757735359
4139.59303502252
4913.91847720551
4126.00365988062
3390.26040141811
3640.58953763317
3737.10654330716
4121.01911964941
3813.82268025621
3744.23236290225
4444.41947189376
4118.14530059286
4411.13096518199
17415.1078283315
6203.96846888825
17774.2298241702
20285.1474218725
9087.33403723076
5605.91847057508
8504.39583457449
14736.8685684703
5678.88391308968
4301.24242316224
9686.21797363307
5977.42200406075
16382.5657882867
4391.9175963121
4180.37911108344
4447.37381412412
8356.65593394154
4192.35446056345
16961.4633705
5634.13691945578
14972.6679709189
5478.64128507206
3928.15217792005
13008.9894665293
4324.61383692652
4354.30830460122
4473.25216500192
3028.82487262958
3245.75055361177
3496.23594660579
5428.9403866923
3967.14515634599
11072.9939151716
5629.57138999215
4588.28213438051
4439.91095081339
4720.87427308764
4875.64366463221
5275.39241409451
5140.31141499762
4159.22804671266
4565.39470486555
3792.30677069497
4060.90278641097
3954.23536104981
3833.52206833876
4817.1573472435
4633.4342029432
5052.34573808963
4845.22065325915
4815.57221876229
5056.31722408421
5203.9828866828
5211.35124752538
5120.8795867878
4836.85801717372
4970.78660437543
5065.59349955413
5856.942378506
5488.65328247748
13970.6651304535
7043.42830387731
5219.79060937034
4332.45850742373
4495.03945529603
4468.92449858176
4156.86870558593
4304.12001503062
4641.06805262301
4551.2192012689
4248.31544025956
4624.01382213912
5185.73818597514
4369.21029817438
6635.67718904934
5599.13217520428
4399.51165369651
4356.42395740923
3350.54146322101
3781.29204491819
3711.43502441645
3812.66921901595
4208.25912412025
4230.47106411195
3883.18375834051
4557.83062649769
4257.12439241413
4552.42053136777
4490.67469078923
4416.91731661337
7884.44263457085
8194.14232261298
9455.58232986553
17637.6127891593
7326.63927382328
5550.93194132397
6711.70499416132
12381.5641948694
12898.6612573812
5480.28412482812
6227.53529222059
4751.21747877675
4544.00605209914
4321.20492528974
4207.7368349346
9815.40670295562
4277.80987817321
8082.88361308715
7075.85985022915
4584.2135781019
6700.92320095996
4798.67790003058
4138.10732788683
5242.88642243805
4271.21553725744
4573.55629485661
4329.57128541989
4784.37315625463
3128.29447342446
3092.73157723425
3346.25159811845
3460.49455713448
4652.86419958393
4011.9198301923
4031.2977765675
6156.34018650664
8388.33987925075
12286.4344311929
3915.22498075649
4794.17442413517
4752.97617436988
4870.95813233159
5249.19960360274
5137.71161833817
5946.29650184112
5147.98227711452
5419.97582959946
4147.71194132512
4530.23408211005
4839.18474449033
4799.56045125115
4332.46704574164
3882.42456491025
4454.39712008166
5238.15661904247
5075.80701419242
4796.20840780681
5085.59187501283
5556.92665255888
5540.91237311687
5578.21374425773
5167.92373022487
5050.64796226111
5289.99391071139
6390.81129736311
18961.4720874402
7384.11064681281
5474.76963731206
5735.12817051532
4761.33768210056
4781.12141197718
4533.99220490407
4363.73307810387
4461.2588114005
4979.34948770187
4692.09363531026
4980.13765324476
4890.3436925589
5146.30112199427
5884.09331442563
4328.0798113788
4913.55759631897
4663.43709270853
11448.4118715832
5419.98637112318
4445.20936508019
4404.35663148483
3467.1488716923
3727.78789110154
3972.30058588048
3909.06110165503
4024.78992459019
4410.69602792034
4342.8224476278
4382.02122696478
4111.01967030077
5347.66020937842
4503.08133495852
4807.82645363898
4767.65336877271
17100.385696001
6886.44307534488
7429.22794138283
19328.0766583862
8461.03485335216
6050.65535204841
5589.38425610777
15788.6142435943
6661.74139668387
7145.0429217463
5778.69378463168
4415.81482475126
4522.89107770197
5192.66234217287
4333.90709917381
4459.39788538562
4285.50500751166
5042.94593358358
9262.6278584919
17446.178596667
8932.88128147897
11693.2208238748
8553.57950347109
2136.87396429197
8034.92014696014
12183.5934735956
4942.94471323002
4563.50966574634
4745.49175552862
4899.06102596858
5108.8920690048
4869.18458816621
3131.93306451895
3128.61564804312
3531.74319112249
3670.30910741694
4945.99873493989
4146.57901407702
4132.03445192449
11403.3662169339
5656.94064894833
6318.33772041631
6141.24194136183
5081.16250707588
4978.67637748336
5080.67964292387
5231.58338481489
5508.99881645352
5512.67362223219
5986.51850081192
5499.39939650822
5764.93151886111
4479.83491753762
4812.48438379632
5063.13220893916
4549.78295702329
4643.71283658535
4336.08477132894
4855.54676149351
5349.11800811036
5644.85709472518
5445.4400164749
5083.68453910689
5276.2995258033
5651.17275499633
5921.90574389516
6163.75729339661
6220.67656103389
5375.163857818
5209.94134092262
5313.55762078497
5487.69043427914
5618.97739724195
7402.22088674984
10435.9727608378
10980.377923772
9357.21659192518
5876.32956041406
4913.16734122159
5030.50184374603
4644.59770888991
4831.26988597241
4503.36854316325
4699.86505876871
5124.22762016193
5282.26757157358
5396.1152534888
5475.89098140852
6874.83359099368
6143.32476935768
5674.23317323224
4525.04207532894
6232.53440988495
6012.77864413904
14405.0936713281
5537.31679109698
4839.45641668379
4540.14478235559
4564.37149318382
3643.80488011844
3807.04782626957
3994.8501509949
4269.89741457868
3750.52159303973
4199.67247348139
4687.34692885692
4265.47442576768
4428.49568972515
4596.38400924733
4194.3902814785
4697.58336449609
4534.12830420894
4933.79848643808
5130.98677225373
4908.03201998805
12475.5550634538
9859.29336358808
8967.73587040921
13007.1857283905
7506.07170703721
5950.4668854249
7434.25232729264
14196.0509670533
12703.9107299883
6014.46123416867
7463.30094748313
4709.18163994989
4739.84627296849
6105.84525032443
4519.55727937863
4609.0263201707
4543.13493127426
7441.8799408518
8495.95133933513
17516.4171245131
15444.0513299611
6270.29594076778
2925.24655826236
5011.2945222132
8935.3152108666
7282.49079105875
5245.3476971601
4555.19177087179
4989.55483099603
4820.96013946109
5565.99316515349
5250.15490888376
5075.9640281656
2982.79760587885
3630.23699560568
3057.15753396602
3611.63775648854
3706.74678638187
7095.71199018135
4525.48865121166
4100.0164614988
15186.9624197207
16391.4708938256
12207.1270905126
5752.40930421946
9017.43848590692
5311.96835027775
5454.99228351
5075.3605631822
5448.65703089425
5548.25732150518
6073.80358066125
6031.20322075494
6543.16898725635
6036.06668369676
5624.2767325435
5903.70839409545
6236.59159071795
4999.67245916214
5148.90882813938
5456.39195407303
4822.45156132117
4924.8779794972
4181.95947088325
4762.18083420457
4229.39037455815
5186.38989913862
5833.32673436611
5959.34751385497
6012.04537889203
5603.97498184616
5536.56523584901
5099.39534988764
5004.20201832723
5138.70988165774
5835.81107643472
5983.94107016101
6252.43033191132
6359.18997472982
6578.14207054069
7355.72506754522
6541.40310550321
5939.96266128857
5494.33985283603
5322.36889560583
5713.93451677514
5963.38931175816
6793.76975961547
9058.96481450073
19870.8153885961
20637.5689581717
10342.77394806
4998.3942460218
5154.11402178819
5338.37839208508
4796.84534190754
4736.01926720542
5024.48726641848
4639.51883810182
5244.24988509146
5256.44874451328
5398.28689228869
5739.69734831936
5558.11585596967
5713.81723485448
7788.11714704714
7010.19336755969
6339.12315251091
5863.69741796838
5926.43658545484
4693.74895040413
4664.1499328769
7137.22611152758
7705.20956860104
5937.39384052983
7397.51771892788
4903.60295882802
5047.25575633169
4782.09093841571
4719.19249388151
3660.67511869116
3822.99881311003
4005.9410829614
4470.12719568248
3748.12945092697
4193.9027701456
4834.60073550485
4965.9009006847
4586.98838055781
4513.14855023152
4950.63935407438
4751.12442799397
5157.4504826489
5283.1261633338
5126.36018693
5024.66628237895
17826.2439456248
21177.0849199085
10398.7350615141
7587.56562466738
16406.7040179972
9588.07770243589
6182.2795676992
14641.1922580469
10655.5462480165
7159.86431098352
6188.30151054186
4686.49555878945
4873.05674977315
7965.71391609631
4736.15257103577
4701.52840213399
4597.33601780638
19084.2576181731
7335.70237818052
6534.90769912042
11457.4648643498
10694.5349783066
4582.40706492692
12275.0141007134
6338.78445976365
4557.74977587206
4708.92695972101
5049.16000970031
5394.14284140896
4955.32567121729
5831.36639535378
5228.15453483258
2959.38577344624
3189.06957805265
4350.38448515327
3584.42827350807
2946.5768677468
3446.79868460185
3908.85554821504
3713.62686158732
8079.73013362805
6293.9155949749
4370.90626672384
4107.92755744884
8191.43196687074
8052.13438407763
12757.5653553306
6299.53365572128
5745.67124611456
6060.75252845676
5351.37519988029
5814.07440807751
5692.07547270331
5889.07275101713
5963.27631691858
7223.36371979387
6224.03037857881
6088.37444275936
7142.75374855344
6487.83487954014
6393.25244548219
6211.61840676521
6513.33555045084
6521.81865810958
5263.9169026305
5434.71398848595
5805.39178131541
4756.63231154364
5344.30228292699
4042.92472436118
4468.86255629215
5102.14996141615
4772.02767500455
4414.71522286973
5549.47933998656
5277.10300678733
6061.44763894801
6327.25754490442
6228.15417108767
5685.65052966583
5784.83365429922
5275.42415922276
6002.22377493856
6236.0258962625
6453.83016417363
6539.70494800564
6661.28545208715
6632.11600824387
6891.98379927435
6665.8453701823
9060.40747214892
7202.18084041526
6472.55551848893
6190.87831587456
5683.93726878671
5763.83090115806
6192.77712775134
6268.64882522344
6272.59402092167
7016.38745678222
12568.7440999795
11412.8545230228
16259.1644866917
15679.4155533103
26079.6034731418
5352.50308541064
5674.2930887586
5029.19116801395
5721.63024484462
4900.85268969316
5192.07326422109
4810.29780680126
5541.89442427263
5523.6622248585
5564.33704183868
5881.89329620738
5817.65903444572
6304.03838751903
5861.32193430821
6015.33020996653
17426.0120668929
9255.90417697334
7667.03382506743
6306.11075646168
6109.15654942783
5617.63951709177
4738.24970904168
4781.88425388953
13594.310004666
14288.6771751106
7264.34106361134
17121.4319555696
6710.41768882887
4924.9940090836
5138.13022579037
6047.65419745345
4987.58187309527
3721.37175547227
3931.04340851841
4264.29066283727
4737.43314825911
3827.70144588018
4047.96510114
4152.89554391068
4294.24702000452
5160.16213348063
4824.44658037568
4391.55830141692
4910.13078750181
4520.54415152908
5244.46278432622
4953.79690342525
4836.67927154268
5308.33513003637
5254.34281401929
5222.54402238136
5161.44707369067
5032.99019494955
5030.73651106114
8856.40321856619
8538.2766491197
9346.31002123218
16829.0540807359
14584.0792720688
15245.6152275866
6378.32285857382
4634.55248317787
5126.93881880336
5315.29693933631
4999.97159965038
6665.60297939373
4935.90442103043
4895.18421866248
4736.97736568048
4497.12115227644
15352.3918696562
9430.06147218412
5989.45427241967
10075.3096765832
4519.79719487286
13316.8531847855
6870.74969025247
4885.52117070119
4951.50245033555
4845.84157816615
5410.42022286567
4931.23084646931
5952.87549323951
5361.53397624257
5646.55662692583
2854.5019159042
3100.75140288512
3596.00129229361
3919.89046805065
3696.52896276973
3085.76009975324
3436.68328170924
3646.04472448064
4026.91292993567
3950.15917013672
3611.46312608114
14427.7499520732
7143.02991569386
4707.5432967493
4426.22593331045
4323.35886201173
13425.8702327603
4698.05283675772
5444.32846184812
12074.4033938277
5710.14648247797
6194.05977043596
6084.88885754614
5839.43254485584
6048.24576707555
5691.98360963259
6218.85004306648
6641.55541229758
6532.53537079914
6212.13812719369
6745.37616318616
6948.63697128071
8834.2501391676
7224.85445705778
6627.20580667162
6666.58046227657
6624.93332452573
7032.85159198478
6846.18910800894
5492.83978540994
5855.18410235495
6001.57759734588
6110.39004410456
5299.8675061808
4142.40896122621
4439.1429113174
4939.52642773619
5915.25634617076
5521.03334127431
4674.72750468808
5835.84798676464
5193.16368425755
6447.68737674281
6896.21750660739
6725.45279214459
6193.10667018602
6059.98926338156
5387.81944687525
6313.41874020014
6687.8615140235
7107.12325679926
7063.11742213703
6834.39501469059
7273.84176846414
7615.47886995503
7416.59839223407
11007.6323091169
9572.76717919477
6889.64477554275
6293.16692341773
6584.56599348793
5808.08745489346
6073.49782478297
6693.87743655432
6406.78756158887
7012.78101860046
6811.48522258938
7505.08511668618
7471.59443162329
23938.7957204168
26198.474420793
9926.93174632209
27097.3787503763
8587.64156443388
5678.42305879514
5586.85421178267
5924.60020883633
5246.60925009524
5700.54102074572
5175.38664875595
5035.49825625107
4884.99478798539
5935.69628925962
6221.02174404505
5420.02452244985
6224.41119881954
6334.24357256758
6542.64671505806
6682.13300722285
6215.73827281052
13535.3127289048
10457.7657356459
7740.41991467796
9649.45402350757
7819.6616047776
7317.13817540482
6088.79945110045
5977.86050291387
4983.9437958053
7521.80592383501
6442.25063427603
6856.15705748087
10021.6083768918
5121.20394170019
5040.6060565124
5995.5171790443
7976.02505377043
5105.83036175062
4999.78571298413
3808.51428276212
4040.24275716494
4401.98062775729
4676.74909749398
5298.16171669082
4095.26935788398
4230.53363727924
5420.27811172608
4582.03618147649
4653.63636202126
5204.62584691281
4488.46955345308
4813.07746737094
4945.39633895675
5105.82710358535
4756.65274212961
5445.33034575781
5234.36636749524
5006.67676240601
5037.56307264003
5739.52145032088
5359.72889958561
5645.65962101037
5280.73630282533
5255.5780957236
5172.52898900862
15637.3864085474
16463.2166998385
21821.2490608971
20175.4658383871
7849.0661950262
13727.1766886415
8465.43601281237
4952.79677526569
5351.36439865314
5151.14024083629
8122.42781204322
5003.33790918894
5058.70440839283
5152.09044420522
4883.55146953992
4864.16446260381
13836.9720751512
14838.930457889
11285.4748157154
13527.3942776724
5467.24599885731
8794.77061220859
7780.68055828194
5825.02167255528
8241.6239368234
4924.43997443709
5239.90397125162
4886.03364530393
5207.02769989556
5701.66532971979
5573.70129766862
5119.79870153955
5600.2032599045
5831.40765913854
2828.83790904521
3057.19863997619
3608.45321288017
4159.01998796008
3036.33301366067
3597.23867358166
3525.81154976238
3731.41235047653
4143.56302978696
4044.25672257182
4673.44711942317
3653.65987001313
16897.7996834254
5541.26143611858
4603.82740112545
4356.1589133125
15579.4734402519
9928.96614548018
5965.88601621714
6544.01664788216
7340.28445462866
6269.40009824575
6407.5061486964
6699.31634231863
6254.54594956241
6254.79753331468
6358.3251692669
6167.60263434937
6543.95522728524
8605.44203922466
7062.9727106356
6849.8980180566
6703.2642673055
7771.47078908677
7142.51773670606
11401.57523937
13069.3959522099
8109.94299199249
6864.96346961639
7114.97894036782
7042.59367147232
7678.37599004027
7664.3973351404
6443.06616835652
6421.74928994034
6696.50293704031
6927.80046990283
4570.81766788953
4927.22390602639
5431.29880493421
6130.31280623575
5923.10115340175
6262.34772509406
5725.23921639812
5473.01821179534
6356.8387388615
5925.42142384169
6916.99513865259
6487.27137486794
6458.69585859439
7143.80024490292
7122.85186965815
6952.73136104953
6292.12813373776
6651.48232714072
5664.74415015772
6735.37667517909
7121.47721052367
6823.84472807504
7448.29490951502
7536.97360432568
7284.80004886848
7583.67660629831
7645.7989205042
7832.66703831873
8575.69354121563
7659.99788996075
10763.8241202582
10368.5785828895
7371.10366770502
6617.00087578291
6895.28784962434
6234.38376406102
6121.22831976768
6973.43661079815
6739.09566031653
6302.37645099239
7117.55773497108
7402.525668683
7280.66777240888
8007.88889532021
7796.64410777104
18960.3800976765
14700.3862985422
10994.6774211922
5828.1886014905
5619.98439269911
5974.98521380546
5813.43003520176
6008.907626876
4984.71402273317
4973.87148859164
6155.68325319048
6386.77871231941
6788.21336403666
6111.44019750703
5679.97388186087
6684.99149504919
6298.81299780693
6922.02553861684
6692.67210598263
7052.02646962751
7073.0551962996
6595.55309249512
14088.3284026655
22956.2453627176
7808.01635330898
11568.0300759951
13030.2613960511
9090.49945721583
7874.7881673713
7012.68110612978
8800.1015310696
5290.02458026738
7839.50101368804
4973.55892725594
5012.31669571318
20099.6485735311
8305.24411466029
5615.27939408324
19374.5057664245
16879.4789782836
5022.29627554188
5221.89703743926
8167.53094727594
5435.3247760229
6800.92816476125
18440.9158770717
5073.83440708436
4065.21403961113
4110.23093145878
5420.31953976558
5637.18437747021
3946.80033282833
4213.62068985153
4392.91073239022
5508.01344207416
5457.99887310716
4801.85186805145
4450.05906573396
4845.61142671122
5245.54211392018
5551.5352813362
4808.48455903617
5235.65741162706
4904.94884725467
5138.0833570897
4754.68847301583
5762.51247193614
5199.75093562845
5057.77523472545
5358.04589663653
5866.13321283201
5747.86423077775
5311.39807066597
5911.25055678462
5756.20751900294
5554.35512734174
5461.76775702782
5168.5422578049
5417.21361618023
5476.79855111055
16925.3184311185
18153.8660128372
6307.68475747018
5113.67162999303
5056.29060357792
5936.5566178512
5274.80302871517
5478.3288426349
20806.3277723956
6801.11113674265
5059.70788035287
4977.19623541076
5223.08892508424
5446.32775637549
4900.49201065715
4936.34440236015
10859.1861875228
16247.4521827688
21416.3070158253
22505.7505932398
11618.439766642
5144.32865405075
13044.657941449
6316.19631518687
6260.89419543447
20932.917941217
7493.82128178703
4893.52243025335
5329.1324700226
4927.35223288888
5176.10007001249
5836.22087937674
5264.24077171331
5748.17433348308
5483.66115723137
5957.26995257843
6086.71108329167
2815.13524316948
2896.64598517023
3398.65401349836
3111.36968175077
4896.85809362403
4493.72738975316
3408.0436264539
3653.73347647601
3710.99707296405
3988.19255699542
4255.93189703619
5451.88008098244
4479.53493943726
3767.92035373676
7363.89835757368
4983.08563431116
4514.5380791545
4405.11873946035
4618.14384786238
7193.07699918569
8913.12432783152
5693.88280782422
13762.2628918338
6055.03081944475
11423.5359148875
6688.40856385207
7040.01240962019
7484.91094768518
6711.71541755232
6968.090754255
7095.50394783133
6651.53144278075
6732.54473285895
10850.5294334337
7324.70470195962
7340.94970285656
7245.8262277767
7595.96352326841
8336.02070292941
7860.64379704487
8294.41546869585
20687.5018618111
18758.0144099598
12144.1459330436
9595.02795064821
9652.36881147236
7895.36671726597
7985.39494233401
7697.09973468695
7808.55291949793
8413.48500998188
8111.92025754079
6485.43168106489
6839.26917261182
6829.92132560771
7247.73482229685
6982.16437478257
6936.24383260979
7348.73368315067
4996.3122873315
5275.64335916096
6003.07257849582
5970.02375423922
6588.05266997503
6132.69521557274
7082.83767344441
6062.16363284047
5634.39147782532
6676.91293673122
5784.33961029484
6237.68077383442
7150.75153295721
7476.48353029315
6438.44164271203
6801.59330678873
7323.59822576748
7456.60355788965
7377.76433025176
7169.92250445648
6758.24195689413
6727.26590217386
7036.28331016974
7074.0582607746
7158.41416027211
7191.32277784499
8110.229956614
7813.74630452858
7751.97275038266
7713.59855831023
8094.0374256004
8270.36041844415
7983.88645967588
8462.47517984204
9426.14827072066
8341.40627717939
13763.5842076991
13424.76675907
12957.0717790447
7008.61271924749
7154.55663245152
7177.97145291953
6468.6311148138
6285.43569117594
7357.91386569654
7203.43969179466
6826.20465924895
7435.10354808221
7462.51683725615
7713.1225749771
7598.93652642742
8300.06030137105
31237.8833666861
13551.9848807438
6254.90088162195
5844.54231401423
6633.1641690836
6422.6038617867
6310.86204412956
5040.29273024532
6790.54714816003
6756.22463590516
7042.82259163261
6927.6823652552
6269.39613182808
5866.00955991981
7106.99500795308
6622.96059176102
7230.32069053896
7022.3441357188
7954.57654861675
8045.41863611683
7904.96286039617
8532.92458578955
25328.4271882713
30560.7409795319
11698.7961975274
7278.94816340832
9044.79566657016
7169.46781387344
10706.0298679939
5220.09544241379
16935.4901145975
6205.16359251623
5045.00165336741
5022.15034467824
5034.41815952978
6217.02332858473
6672.72066653574
9322.81929765609
8621.98906197318
6624.51229309295
10217.1537968968
5693.00880500263
5594.20105902322
8423.62752614164
5301.12016621949
4155.26808398162
4196.93879338913
5523.49294672761
5942.90240138569
4102.48339928872
3916.33604484121
4534.14526844743
5476.06048664693
5471.08276291269
5243.39828781379
4717.07570715557
4579.23110333376
4871.08428300892
5421.13018939872
5790.87724228577
5903.03456174269
4883.60751799368
5524.84755276863
5308.41314906454
5331.17744127887
4802.03644904962
6234.37617355825
5240.8119878155
5346.9897022803
5593.06399723341
5934.7010945383
5749.30857691118
5978.16286778824
5488.823126476
5980.35289013077
5603.29506938758
5496.11420988368
5442.69490146769
5340.4995409343
5447.43692929035
6290.83806986711
5565.90159456768
16556.0036921912
5662.71869692887
6665.04921393657
5550.5392658851
7512.09163567861
5061.83436380892
6144.00961587732
5690.64032362339
9422.77198362559
6990.12149478028
5144.73923600968
5220.14001802715
5366.47304849916
5746.15918465327
5483.51223725901
5179.51225671359
4847.46426287898
9534.57712968313
5300.20213756375
10783.032527329
14391.7537812443
12483.8581772386
6798.86145178139
6357.23498723208
6364.77152052085
9052.92101255157
4919.84049622297
5384.04015007095
5252.93948998108
5550.159076208
4988.50835083735
5681.34922700672
5932.84576093608
6168.33367298579
5163.22859668584
5701.85643904648
5887.21699552115
6396.28866126689
6333.91446835969
2995.82915025265
2826.8952157074
3000.08310877495
3558.10660359606
3471.36931523076
3330.20825626343
3898.62890723421
3710.34551291261
3273.63238722875
3926.65029484941
4081.99271039919
4220.28642000318
6609.36353099019
4671.88391505455
3937.09606704902
16455.0512303802
4753.98688782381
4538.94620984146
11720.1157658211
5300.48443229718
7498.07634290789
6351.05522886183
10683.9930631617
6815.82025237393
7541.00132634228
8087.09763100752
6710.79752630351
7010.20685921027
7480.13256699762
7557.28715258665
6783.44293472485
6783.00430840415
7238.6680218736
24042.4607825997
8672.02692438743
7616.09464173674
7692.31227264732
7735.12709005178
7849.45755854692
8490.40526427553
8419.30271212555
8585.67158757439
9440.87719906622
40371.2343125913
9453.46787556587
21169.5763269781
9453.62599180652
10068.7667816576
11727.9967857343
12512.6661642814
10503.2161801712
8148.75142843108
8544.25948579957
8067.55086377528
8274.39124428474
8494.8035791249
9036.20888918891
8310.85911988317
7063.56200932674
6946.87533305738
7067.43101916869
6871.9311954024
7508.63604702565
7724.52044577041
7672.83924826042
7763.52727231324
5467.35284677192
4740.03980123362
5189.15331042359
5836.605902587
6549.16072666684
7122.99717047914
7068.72235819764
6537.73742217387
7052.02430809779
7850.3699020174
6010.98072320669
7102.69390443395
7066.63730881737
7895.8814972518
7329.19674160219
7971.27597887717
6635.72900718599
7096.30886290859
8110.25486204195
8325.97919387677
7914.3446166424
7858.22571560656
7138.85530724219
7196.32218245484
7788.90573251175
7117.79241540565
7353.79328964185
8078.50728649694
8643.93111756784
8436.31807120117
8294.10930915572
8342.75712164629
8322.37279280587
8845.57294602196
8779.83202533981
8785.59668507054
9092.15447594248
11392.8612140632
9091.34427410654
31775.9381107076
11936.0205603046
7401.25255842599
7669.17423284994
7863.57990453403
6389.7387037836
6886.30288690609
6922.29295747808
8124.91337149306
8031.33446602813
7162.57705438835
8216.76807363247
8359.05112406507
8199.01451018096
8909.33183640131
25456.681468826
6662.65705291054
6094.34594794051
6881.76594524301
6523.71528838755
6735.21543043998
7056.81779579148
7484.68747099924
7373.20001307885
6528.5422271133
6625.83674842845
7146.86123624444
7276.13459789223
6966.82602163079
6945.14149726079
7920.66912677403
7515.8915516556