/*--------------------------------*- C++ -*----------------------------------*\
| =========                 |                                                 |
| \\      /  F ield         | OpenFOAM: The Open Source CFD Toolbox           |
|  \\    /   O peration     | Version:  2312                                  |
|   \\  /    A nd           | Website:  www.openfoam.com                      |
|    \\/     M anipulation  |                                                 |
\*---------------------------------------------------------------------------*/
FoamFile
{
    version     2.0;
    format      ascii;
    arch        "LSB;label=32;scalar=64";
    class       volScalarField;
    location    "2000";
    object      k;
}
// * * * * * * * * * * * * * * * * * * * * * * * * * * * * * * * * * * * * * //

dimensions      [0 2 -2 0 0 0 0];

internalField   nonuniform List<scalar> 
109932
(
4.21813895201034
8.24256289084022
11.6523536231519
5.26274792710531
3.88549206932947
16.3571078130961
11.214863785535
10.067032307776
2.89241162103618
3.64261111734415
6.09794102785102
16.0733196067618
23.9160382083112
5.42721038137564
17.4887675842877
15.4736685255552
5.75574492960745
9.88379152948499
9.21603398392332
19.3492907775435
26.1205533853949
22.9959972973646
24.0011015582937
6.30715989496911
16.9140027010688
15.5209161769087
12.2344789024129
16.6973842451228
10.0414606654194
10.2008771607842
5.71971713842607
13.944595383708
20.8466905571111
27.3362523724747
30.2271660893119
22.9097667662238
28.5994416511462
19.7508285221904
11.0821813702999
13.0135029131325
20.6637153708297
19.5144094716421
14.172373757038
14.4818013041766
5.34240121876512
9.57912366430811
25.3998658943433
21.1721191744133
26.2938929961368
31.0834329964851
30.4898561005787
36.1829636499462
29.2392974490833
19.2884348711904
33.1316560882345
24.0715194961449
15.7413417704839
16.271809449084
23.3715809846144
23.7139387674123
19.4198696707511
21.1615468073598
11.3643368973671
2.51106570287218
4.5976480609
16.6958095679458
27.1310424242181
16.175270758805
30.0912804909572
36.6945380424409
38.3391884531209
39.5184746864638
32.3950950275376
22.9993528660446
37.1803942882517
37.459207162518
32.7825227246283
18.5771184129488
22.8938599157299
22.3943662423675
23.9514376672392
12.9538267762923
23.3444230581551
14.8754453562612
23.8441030323537
5.57057146986665
19.6123087054433
7.67089043542962
11.6447923236273
13.9393037003142
28.141369783637
32.5532508523168
9.53817586080005
19.9580028476999
33.3198342207014
34.4191585999804
37.7055362445173
38.5916828604209
37.1963917975906
41.6389739305151
33.6672133007476
39.9419600527844
40.3635783083472
32.1594587676512
29.8338924332644
40.1355019720905
36.5573960636647
37.5491274470371
37.3065513423277
11.2768332992871
18.2403829517792
12.4268738688956
27.3574886651688
19.0467620214806
21.9515818401446
19.4281659704809
32.5181333482719
13.7176996616182
17.9111721003354
36.2346425751428
9.0745591250858
23.0619621954641
10.0628508649372
6.04098160045715
8.05050329094187
20.1045847017268
31.9189590491367
10.6682805932211
16.231369411206
32.3119272140507
36.6640701951525
42.0666622911181
43.3608499900565
38.4269167807387
46.4882141223875
35.2580157463742
40.5912782982925
43.8435969938567
44.2217130538213
35.9837429814738
32.282228912807
30.0264153859192
39.1347529541119
40.1789615620666
35.7467909063821
40.5921039876826
10.3779947189787
24.0611238373531
14.2812532447558
29.0758786669968
22.8823424454596
26.7113837360702
10.3900549460327
22.9791772430891
32.1079297014434
18.0653808830571
10.203964983799
19.7126560129591
38.814385581048
18.0319825392823
22.8304253104915
5.07651505339859
15.4270032984861
6.68699045912214
6.0119500716441
17.5243696496909
29.7376597856717
35.4936714317066
30.4478919121118
12.3624014523113
20.2485500979337
18.5758383288165
40.1947336954375
41.1587537224043
46.4209075506036
45.1044351348902
47.3857374296364
44.0802190673276
46.8663532519825
49.9895327953507
47.5204970873774
41.0640011705304
37.8185800710496
44.9491521046956
46.6930545957963
41.1886689704062
51.0571692519369
38.3903727075221
31.5730293041764
29.7282754905042
36.3403757043976
39.5529229600227
46.2256661453183
39.1268419007474
37.0538767969509
41.2064553836587
12.3675237992857
21.1617217141064
15.0890652625277
25.3316537425923
10.6415153152037
35.3930712096801
23.0676780377896
9.70446897727153
17.5905058594195
10.3964923654275
19.5773308276662
13.5178641771183
26.0657725809454
39.648706872559
34.5140125675128
19.421869962348
10.6211113410899
15.1032883457327
12.1776874511436
12.6410316762386
23.170586604383
32.7543949376974
35.1808342396985
32.3596243012992
24.4674027150844
13.7379220710176
21.0104839212681
41.6086791121615
41.5616526429116
43.3718909245356
48.0959812402795
49.2552279641193
46.4551915350578
47.9494942346038
51.1688203568259
47.4895803338533
48.0174822168836
49.725433629709
56.7945470340598
52.1186327530257
54.3671238714695
42.711945026853
29.3560151928992
42.4916527152185
49.4870699186132
51.2878403153648
44.113954404634
43.1826794553253
53.6928469080581
55.1206092759886
37.1658652333681
35.807217445003
32.8948093856214
36.5036137739042
37.4331178367935
38.9745807141409
45.6392437341724
46.9752181550782
41.7675047701759
41.2863899410057
38.625333556603
49.162508216333
12.3819600295584
29.8521022687886
24.8688716943742
12.1680384163923
14.2691090593441
34.8630035259801
26.6712851177687
13.0142956892207
19.4249646636013
6.90892279574243
12.6275500442235
25.7540963457654
20.2508797405154
36.2262233640464
45.3611886340643
34.0324932710093
12.6846579374759
18.6412406712173
6.86108973613313
8.29992923650789
23.8206173002141
21.8985168733804
8.68001676103787
20.7156643986964
29.601717147132
34.812894274286
37.3839823144447
30.6211253771256
37.5242348084919
25.6035741036342
36.600675225023
12.5194308137232
14.7865273329188
22.0969582492219
47.9036425020646
43.0520401194017
39.1400041508558
48.7300118397686
49.0094636413864
51.7350227376106
47.2177987977918
51.9827514060544
51.1954601280046
50.4893159601003
57.0200753074157
56.774839721443
46.2349989215415
56.1865061143345
58.1248522520689
59.2820061945091
57.779608544501
44.2470037061338
27.008530752865
45.979653178525
52.1634795701596
54.7752101752253
39.4382778190364
48.0015926482761
47.3611964461251
56.3621144787778
57.3837376626075
58.2949253812459
57.636587387904
40.4473322528522
37.6568906125043
22.2863886948683
39.1933124486886
43.4386039439907
47.9054990899533
46.6743035235534
53.3257314854287
40.8338398951498
40.9613326373011
33.4630359545793
49.8884005396736
52.8471586057305
16.2987940059891
30.2792008869693
16.7354475139979
17.2572024810578
22.8093044673373
39.8681417754261
19.8998993981107
15.5102294917659
25.8541823077538
6.37425117089992
10.9518330037263
20.6608844494241
14.4373639493193
39.5051652148365
48.4072880753668
34.677926012553
11.8689392975435
7.49514795481922
15.6614507870363
27.680687029541
13.7967298491999
24.9583076196555
15.6921354588208
12.2801985000558
23.4257738234666
35.3498375943829
43.6180042282752
31.3416158403001
38.5455003248047
39.38231473325
23.2366270525531
34.4708809449435
12.7929303570973
8.65682486974803
16.7434738562715
52.7432964579872
42.3259502767387
50.8541805397754
37.8527991204965
57.8284773278976
55.0897101311722
59.3861174703665
51.1624845000983
54.876835791827
53.4632795459878
51.4949186511864
58.3068993003611
57.0392050041569
59.3359913490386
58.637256813704
54.7867878261504
48.2041464475722
60.3806843283801
53.2176316566741
58.9522386413141
62.0935194136481
62.0481835285508
62.2886472923963
41.5315364924191
44.6129865374653
14.203973779411
33.2625984226407
49.3901898258593
56.4173647375679
56.9650341677917
53.2454256094015
42.7239497140356
46.7571338360374
44.468420011866
61.6403047587228
57.3431077267081
61.8886857606121
44.4052122368648
33.7963493337009
20.7908313068275
20.0744998960681
37.7350749000304
45.5330584040563
43.6650118074436
50.8038632892757
44.9966422496169
48.1605173073578
55.8400893986783
54.096491886035
41.1542148895079
33.0795666739014
52.0078296517214
56.7228804664583
53.7077320470917
50.4927435408696
25.5973318747672
25.9549204980309
26.1780547979991
16.1461034709387
28.8799914424385
45.073027464797
23.781110092162
12.9696930314159
12.2714157725797
24.9170141114675
7.54324028131184
34.8393102499856
39.1489116651027
45.7695798161379
48.7398781751951
13.2158300966189
13.8742674421242
9.56201876262649
22.6420085215678
6.15523410378718
21.2830670167063
7.21146758273076
5.74611179387482
20.8681430339664
31.5732613709274
39.5944465567712
34.7366458052533
48.0777980190162
27.3150006086108
35.9708848515446
39.399021770487
40.0250495452726
27.2730805142628
34.7953289939721
38.3679574994635
21.1491448259701
11.2905562640271
14.5982799551883
19.6900690597267
53.90612135375
57.9110504486256
46.4013868924506
39.5426445019561
55.9846087259741
42.3655497462417
60.7451816672401
60.6130899853991
55.35209023101
59.8956456502744
63.8493777422288
61.3135140344012
58.8199987177447
52.4604096986381
59.9902360718571
60.5026353169363
62.2422366970949
57.0699941002335
54.9609389195122
64.2805363518746
58.8497071097226
49.7430022808127
67.8628351072015
63.8309548168172
65.6208731273703
41.0320252419364
17.3994936276866
33.4143812694145
55.4974667486353
47.437187368482
63.6900138390364
62.2415054860788
53.9276432443763
47.0797276398572
50.902750123932
48.5808855770575
64.2681306599725
67.9611516559003
65.5124197989972
69.4516098309348
41.6311149169223
33.998487207679
24.0676168289772
36.0723137950397
16.1246637587958
28.1815946727532
42.9164373547088
47.7199319822583
46.1955860519674
50.2708582474319
53.8336571270276
51.0208296764088
52.5657775686838
59.8396544188336
57.3739748983857
56.3409762009497
46.5625734682483
27.4000163530185
53.9622786012526
61.7217530920122
60.4475512837758
16.3515890672641
28.89356405337
31.6001232730157
17.6711463471975
24.7300521743863
43.9970521559692
50.6434973306615
14.0289885231616
22.4954955101947
20.9526725552485
28.5619900158936
40.8308011059176
44.5403217019765
35.2343349057776
46.1490949794772
47.3854955857407
52.5722963058547
16.8098322170938
9.95033892949799
16.0012945998759
25.0619477832527
11.4840393271471
22.2215521524913
3.70990243280067
10.1677400896021
11.8296166575145
25.1960491483491
31.5821756032683
45.152178937985
41.6292444110046
50.1703347746066
52.1734486075396
31.3710068757592
35.5333814714496
42.608189656544
36.7073574573907
26.6587450888868
40.2182203478005
41.8297680767428
12.6469548352406
16.8009079853803
18.7786407107251
21.5182949217229
58.0439482613902
62.2915921026267
60.7589602822773
47.8538631555202
45.1180171298833
57.9162968708654
47.2889765104627
64.7327628043969
60.5641080324191
59.5918660945999
62.9537412917902
66.3544962988783
62.2270657516662
62.8416565351819
58.0171703543322
65.0412836640536
58.033311064472
66.719322664504
67.5750790824421
61.4001143584311
57.4238571135108
67.9033570091009
69.057798644415
62.8892420864374
51.9170019596651
69.2054671555848
69.0118214310771
71.1833388078189
67.3796216710005
70.7199663112453
45.6359466819964
24.6242927962041
24.8983192688142
28.044134193112
54.3776970489015
65.695376871448
68.4734739014955
61.3897570359271
57.613490531134
46.5191989895309
53.8091079762497
70.55965360355
72.7726572141252
72.2659709366098
74.0014350968663
33.5986958301845
42.5573692878063
45.9395756132205
37.4449644316721
23.3186388726686
27.9969853598733
18.8444885410457
31.1105298107555
39.6868313012791
46.7251342364626
47.4543039902094
48.9955515591693
51.5229323919431
53.4218608231401
58.1674320469571
48.1050902328348
53.9197535396478
64.0732656448258
57.8266477702598
57.5772473432158
62.075616471344
51.7288738071255
59.3599749661031
51.1313238222784
64.5008978335718
66.131596867346
61.6608911593641
13.3030377251152
23.2802720949663
27.4697311752897
13.469335394758
32.4955887560658
51.4498219638987
24.0763404755506
16.4648511852556
15.3046286691326
28.1679498204066
25.5384621215095
39.3533766932043
42.8768516432849
28.6239759949191
48.5317953279423
49.3579264987098
53.3083755490864
8.54431210342004
29.0217072991927
21.5466824102072
13.8511550261889
32.948762349614
4.57475590318491
6.56849550616256
10.9667818674873
21.3939926841948
23.3441458406205
33.6014487193883
41.6638480174593
49.4615765236191
39.4424813008586
55.5705076806112
56.4020400720813
30.5239007252987
30.3398801327102
36.1129097824157
43.6394387649698
40.1989052332765
21.5954143981366
38.5842309199525
43.0358869029246
15.3274013099229
16.1038953232068
12.8418502230641
18.8078522162757
11.1981650224249
20.1638494846486
63.2511188814282
66.0262630861536
66.9255215727906
47.5016550090668
42.6028267757452
64.0503817761374
44.0820671520097
55.2361995337181
67.6263125443284
70.6227850812408
65.6840176790252
65.454289408619
66.8610880667424
71.4731548876632
65.7856672575967
66.6463124265482
55.3446873938709
63.3773386502414
56.6981970824234
68.5765273540305
63.404602548753
67.9733251180786
71.5707496297348
71.3586845585524
69.2182201914753
60.680437200281
60.1715874903299
59.3692906158943
63.4947971957886
71.8310847366207
69.7317619718485
59.9595403733575
61.073275727051
47.5985802504411
56.793283744232
76.2071671744282
72.4003371600832
71.5204768592616
76.7596785828973
76.5463778324272
58.409470529482
36.048601786614
17.6499072257758
18.0352244728345
28.2737769807574
66.4001499141514
69.8562914822327
73.8972494744961
63.0579010878695
63.362149230498
61.8342276729482
50.1278711931162
71.6697551874855
72.6615706826416
74.7858837677367
78.3550977280076
74.5898597564721
75.5522243497597
30.4370543789128
33.5280760080808
51.4657747821625
42.1320039709095
51.5279672993088
35.7295135630287
46.8512080745011
24.6705853580507
26.3152567126334
32.0671047388414
24.2235328080475
42.0489637612862
40.3868324460606
44.2197288393226
51.2121043674683
49.2258220639558
50.4070031957159
54.0291687846975
60.6760771159252
47.229034403308
52.8731804546234
66.1688754341201
68.4855132471313
62.2375741684242
59.2599633249192
68.1571712057121
58.8519432369528
68.1930020512548
69.0549877746706
66.538303515533
61.7961800234314
16.8939670017183
18.1501496897317
25.5937877798772
33.9953732146419
15.7249533414036
27.9385794273726
59.2983793534842
18.2691352616469
13.6156111847155
23.9209861773657
29.7949118136472
43.6830703874463
45.4906059055193
24.2095042113226
55.8212780070111
57.0430530097812
53.9525366519671
18.6730876760685
26.868945620594
33.5057799699114
11.391225367075
10.8877704696277
12.9917881522231
15.7656835755673
30.1641665507387
27.3132324931988
39.3204011160702
46.2878930277324
40.9327729166628
50.9237964640114
57.6146743219668
57.4402559644954
33.0069501726556
29.4583848806612
23.9754773672818
29.7365506393503
36.2775559394602
41.6800172380887
42.8131872364073
37.4878587212503
21.2023687203435
27.2194648785288
40.680088733077
47.3393788404596
22.8216579697787
9.68835054936348
14.1708912892059
8.79957852382039
68.4646184639177
68.5427410374339
69.5389897608
71.7359600217791
69.5564268180655
55.7641687726952
45.1543079960402
33.5710451649956
68.4386535919255
60.8657343223725
49.6073297650763
59.9161129857296
75.3183132392449
76.2316010770839
65.2721607707383
69.7225756601551
68.4216232874036
69.3867433335043
75.4201440844433
64.4174240862563
71.9126374782187
53.4702383041936
57.8767279840736
66.8796734066906
63.7882967074836
59.1060769266489
73.2346866920514
69.1475681841709
69.7253302007337
73.2356473759171
78.2081414987431
73.3774268437111
70.6438633759745
62.923928122953
61.682211992346
78.8039013953283
76.3626552751532
72.7999704003635
75.5775942961522
62.7790923654788
59.4208166599365
65.8759675901011
37.8174876421363
52.1491722303138
60.8639003915467
81.1649297392998
75.8164577628428
78.3666281167676
84.1286620001506
78.3964853298542
81.6131758642481
61.7900654483783
32.1204258403268
33.0942566443911
15.425622103992
14.9982793306021
21.406304208807
72.2612915942403
77.8822218816193
69.2218491413174
79.638437688591
65.4018560991893
64.3093928852673
53.9282013723396
75.0146188125201
75.1104109998656
76.5109617083957
81.6803206526569
78.7451011639554
86.3208149106027
77.5209818091408
78.9898486758477
17.427171174107
25.0547321916059
48.6694600529658
58.2412205429342
49.5678803651147
28.3687829917927
41.6056524048889
48.6484990481545
21.2537128901397
21.9824493611394
28.4964894060079
16.196319295433
22.8500831818202
45.7213264228311
43.791487926009
29.38752782441
47.3816326751347
49.2746303305651
51.6823125743675
57.4485657548093
64.0252008178203
49.5130447109813
49.9232076268328
51.4812689071612
54.3538344634634
71.1450398820359
65.1180884444155
58.63564343568
65.4635480268325
59.3184892371375
72.7562338918489
60.6493997822974
60.7286613128378
67.651802409144
68.5236723695597
66.4521578836365
65.1287342460302
53.0141183522708
61.6222451948993
26.3566937254167
27.7665231489724
31.9378595752622
17.1634822305838
18.181208627985
14.8398198669114
30.378935125645
45.7686445584209
40.2826199175663
40.5223675874259
48.1979025199913
30.7220894097165
54.8593228641062
63.6010759404005
57.5555271583903
54.4711540206427
16.4761539487034
23.9122323257564
20.9809838721523
7.71999193063087
19.832530714575
16.6482588557984
31.0651315041553
29.3443446510758
46.586141294395
38.3576075694213
47.3193492426333
51.0405929648036
58.8910632073546
61.9746782073837
58.7357458734205
33.6863341023676
32.7166500537685
21.9210333535685
25.5677745372377
33.7539091330321
39.187698153662
38.2187306694193
46.3654858316629
47.4811297954773
40.3876357180781
37.1005340019658
15.3036847048039
24.5882697328907
36.6879623501334
43.8819265457811
48.8839088025209
13.9779810466636
19.8238666658778
21.7947310928469
13.5649235346773
68.7594542288966
71.9161127711372
66.3692416076901
74.7115167213347
75.8527229579597
69.5114153333541
57.9951883727091
36.4294168850206
55.6164663653168
65.6609738601348
75.3047124805722
56.8958657496113
37.6199017680056
55.6216684744438
73.7055622062383
79.2237933491191
79.9611568637118
62.701197939503
75.4925938833933
70.0880998807141
76.64377943697
75.3097129917904
79.6520045840391
71.3445866387439
53.5939893179797
55.9389147472512
63.43927847912
76.0162436817243
72.348799187334
60.8025313739018
75.9570440675497
66.538500171536
74.9603171777882
81.366668275947
85.161219950381
81.1346169054732
75.2595464605748
65.0892668115809
66.0627078713327
85.1167716380257
86.6290197206477
80.5463439973862
73.5057708230681
84.1505987145107
65.2294424627394
72.6022936137842
35.3793097668873
41.9974608675354
60.17031587934
82.265788496981
86.2823905696557
78.6310916708746
80.7440603345049
90.3479530741147
87.7023744068887
87.2675389011203
88.0755307356206
58.0248794512038
65.9459127143197
20.7094768768679
21.1184119176175
42.5521180127069
22.4048026578099
10.0438241619032
77.7758907821964
76.6397931093908
82.2360024070699
72.7003657648044
79.8691680961591
70.8115937565889
60.1793135014438
53.1059854158055
79.4330035633935
85.6185956186132
74.4355186796165
86.0356264506765
87.8737274472894
87.7712873556604
90.4193402340635
81.7611428872002
14.7256368027067
25.5099294749696
54.4837166153736
35.6917823724521
48.0917210109073
48.0196079995867
52.8184493999738
30.979944149212
44.2457328749283
27.589617241721
31.282140327918
8.77430642867268
11.3018052065349
44.9660291906596
47.7846158150375
38.0688441920708
25.2174551241605
47.8377403049285
54.164130060057
49.9448837839581
53.0518361574538
58.2645104881776
62.0661092215436
71.6000450951972
52.7861166211821
53.4285280845316
74.89561254501
60.8965358869491
62.0882769323062
70.6214873296655
59.4020720363968
61.960675563256
66.2137803260803
69.3115695964542
62.9964311480091
75.9615142340728
72.0708396937665
58.8198988326158
62.9914791414008
73.5226189037354
68.8851750264606
76.8514739481303
67.3995195137291
63.8606759599082
51.1108209780553
16.4037905007411
16.986885846354
20.4430364073224
19.3732095409382
26.3102908339624
13.8228514788523
23.3994662989576
42.800423887744
42.3546141633348
46.8741589666059
26.4240828246966
54.4395067896144
60.4785437111726
69.7093466152218
57.0486424903155
62.0280774580784
15.3743196971026
16.061855981425
27.8096651418389
15.8140959447912
18.009075219925
21.6347292068006
22.1585891942842
44.1039954417337
28.0571810848236
27.5817842020689
48.8059376144177
39.8049737263794
45.0189093518516
53.206306253498
48.9106680930661
56.6869306316338
64.9711513923412
64.949763523139
34.0085771772008
31.9415821442763
20.9219776642752
26.5967511716599
37.7566857195871
46.3546803403084
39.7088272749252
46.5614008072975
49.3873811663104
45.4320246637826
35.2779980117681
38.7505663613326
16.345019463946
29.5772230728573
40.7716539009562
50.6340444445219
15.4091307965007
14.5306808757438
20.3676419287958
18.7352709443123
18.9715197849082
74.1758012624919
74.5328933702314
77.8801581273874
68.765906733951
78.8340803668538
79.302649215822
76.0732836680662
59.6418628827569
30.2130906494346
57.8542713494647
56.4424535831672
69.0356055798648
83.2316272633544
58.7702141072567
34.7029644725909
25.5877045933086
51.70172598564
77.2418186769416
86.1365994353714
86.2270629530427
72.8340510102226
81.5475719007162
79.961350549227
82.6914608413549
82.5442851005749
88.0712504171248
57.6466681372225
59.4051397195086
64.7449634034909
79.5314270639648
76.4363466074392
77.2038883811864
73.8213185571182
69.9199594749566
81.1434468217472
72.8842281012715
81.3017531403517
70.9261345114822
77.8310964711391
86.2920060315356
88.0499511126604
89.4407391079093
80.9234914053225
86.9947120007586
69.8864230838898
69.9467808497235
88.7470448154525
88.0812931975363
90.0358141909305
80.6316216149517
84.3566539168783
81.1119447638817
86.3946798195406
71.3294103056329
61.0694714776456
71.8728302166041
43.4466054619087
41.3701928018744
65.9395421501966
86.4899917580946
91.9753600964342
84.0229064533189
79.9722914990977
93.6625283872892
91.6281241427354
87.1479920740392
90.690004531539
91.804676283165
93.454749881889
60.407995765077
77.2478154675002
17.7384774228286
32.9406935475931
44.8249230875085
80.5789840778742
78.0255893060381
83.2254874871998
81.455249002687
84.7980984765291
55.9621815048025
52.6653258879989
81.1638665465393
84.7619228454792
91.7127611077235
84.2659230632686
78.1028525145699
92.3129797857538
88.1371508836841
92.0333645442408
88.4373197256541
94.9869304750843
95.0933984331997
85.4704729336644
15.1235738932218
21.1750489924219
62.8453741378192
31.4752015764156
33.3945560482553
39.0549894239978
55.2614370420172
51.9951738717915
38.7579360184928
39.7126711698507
23.0370831270387
50.2343419689047
45.0572967006221
15.4738810805104
28.7458183030288
37.9313515436054
17.6151661681128
15.959897520222
50.3612332528435
46.3040309255616
28.6676656147362
44.3726882535911
31.3179230174898
16.882006096427
53.9856929217773
53.2886951445851
52.1049320783982
70.3624293365002
74.1758743256801
49.8508133828623
54.1557048436943
57.5332694567839
76.8632859670029
74.9719411309794
62.5392363815106
58.4446254758685
64.9893929679802
71.4541163983909
71.8541219401226
61.2642726176555
71.7421212535498
64.6064952387704
69.412169503041
61.6046732480164
81.0731557994086
70.9392567506674
58.1886667496233
70.9662152484294
75.8278556357274
75.1547808175509
65.7864609972182
81.0274835122932
78.913697954299
74.1553116367812
68.7771148193553
54.1280571438999
66.5946080759843
50.4420334951618
17.3053543157803
13.8519371411384
30.2004052955413
41.1582159748275
44.4513046020379
38.6181349628045
44.4388582765664
43.6483052371187
15.1463408932728
32.3836690762062
56.8599626401572
55.5231868695358
63.6653836040873
73.9295575560465
60.5564097677073
52.6170166838533
13.064623911139
17.0653915196703
20.0344388025942
21.1267509866508
14.2811409702363
20.2990040217531
13.4695637545001
21.7722009314318
43.8810712024381
18.3937436918351
32.717195840281
35.8725892155402
54.7105403845405
41.9070571938997
45.179072953796
54.2716094832219
58.010354415895
69.0283118032011
61.9256756614223
63.660153262592
70.1424597218915
33.0002408319498
31.8445995469433
37.1418116389362
27.122025929926
18.0556957303821
25.5039725260936
42.0400265618134
46.1784219407605
46.2075281735643
45.8293879310486
44.6767132529244
28.6098329149713
40.0967429692233
34.9603080645576
24.4439429187936
40.2678845753953
43.939781251217
48.5299454389572
56.8117226404952
23.9404030699787
13.5472072942005
18.4446949694248
13.3019262507681
18.0490714574639
16.2845978713235
79.5328797611767
82.5159363345708
88.1892434275771
71.3000128079761
87.323944081942
87.4659612372763
80.8760209872293
57.6263793668546
30.2054504408821
57.6010817291408
53.5789573052026
57.4899078525798
78.005972645797
90.7694974006981
80.9888305793883
64.1755759189222
18.0309776229409
16.9475408049387
26.5868055736254
52.852534030306
38.3253039396061
87.9058543517156
94.2378688251221
93.0722327785744
70.7224229248618
73.8649539363783
88.1702763174302
78.9032498334149
85.2457981319402
86.1671803119702
86.6354770734578
86.2515227859443
88.4697475869471
93.1956237670458
60.4291517306659
60.9331368113377
68.3903911433512
69.5576192996905
84.0712352426611
77.7609994157737
83.5483182312301
76.8146698013766
70.0310344781325
82.3989127014233
71.1644908020931
71.8002404914229
87.3894172814459
80.701403611015
74.240837166645
84.1344683516786
90.4940031427195
91.7623363301834
92.8634566564909
93.4855168120977
86.0867594097149
90.2882538882079
90.4551740448947
69.4511627261971
72.3422728426413
91.4906477797524
96.3886317721625
85.3406742598233
81.2784928004663
87.3767109052546
87.272636542602
94.9490599246376
78.3052015074284
70.0992872989729
54.4847633055095
70.5848579724758
33.4883785304326
40.0157140281077
39.478990282957
92.3896304498381
95.2225141638144
95.1393848396403
88.4987757370015
82.7819388725173
99.6412591857694
98.4287945732637
94.6592069870408
94.6244352085063
91.8984783917901
94.4749146531167
97.8637148795235
83.2577516724708
25.9536332408647
43.7799479275676
86.5221456368482
81.2546323494224
92.6707767139038
91.3806067205988
89.6827626409198
56.0381869227859
89.7530478433927
90.0876517646267
93.8481350758576
94.4183676534001
85.2433220869366
79.9115891154493
98.5478840609654
93.590534594318
94.4657649422314
91.7204353261771
106.332076191353
106.878241549137
63.4070125331463
63.5665023634612
22.2160645377906
25.3380200459548
34.3351258887165
58.7697266688571
52.9753456829079
51.5700537087709
34.9465273909363
41.5228420230709
13.710359610446
27.3411894762198
51.5891272588133
44.3796256283492
48.9717597012733
7.04082278534891
33.7457575589935
27.4633991081878
26.6379543290534
34.9739726751882
26.091639450231
41.962031640218
49.0795839363294
28.5301638013815
53.8687563775039
53.0089407760014
51.9413384847672
70.9622328477103
78.6799326745754
51.0224192133627
48.9723712396714
57.768271437199
76.0061487419398
75.4212886578323
67.4624684219388
60.3440219868893
59.5389022930832
64.7839732190865
73.5403495191064
74.6996339615328
75.2707779902263
59.9644006911856
76.8282072877729
72.1181511309742
72.909798206153
62.3701051251398
88.8736026127946
59.4386603386612
69.13856973207
75.6827189257663
73.9659400184535
74.3940138906567
79.8533950900657
68.5827781598872
82.5127570434029
72.8281791865787
68.504035614673
64.4224507502229
53.6703686578617
64.5098251295153
41.5651921778025
52.4183369344761
17.0622913686422
6.33959893552106
31.3986584618775
36.729546364342
33.0814629885872
50.9716900643982
39.6739367364142
48.2662813399611
26.7430041274332
32.5815500301531
60.522915759589
57.3547981576607
62.1991995308615
79.3591574502054
74.755810201244
65.0996845294282
55.2428355854491
28.4211445774901
19.4799854048013
10.8707033621733
14.3782533592105
12.0007961315399
20.3256891454046
52.088224332688
43.8079958017076
27.9122032231216
37.4512349692547
35.418558086134
51.2183656498521
59.3658715146156
45.5972736491345
42.8541001933453
58.7237640241074
54.4545254918734
57.0904585436625
67.9017539703659
61.5864248661586
71.1161459006407
72.9100341626133
35.1478850560753
28.0668873601713
34.3082065239761
34.554764921646
40.9261863106969
25.8779862503513
20.3792505488484
45.360860494427
39.0711060680382
49.525826269693
45.3965298512978
44.8150770640471
24.2515996769506
36.6651923564291
37.3816075657933
16.4530757602163
44.8556649558907
52.7639202168908
13.026920360422
16.4683334277897
8.84428814622642
19.2748245310809
15.5629184769829
80.7761703240068
86.820563298383
94.4769335220572
70.3980683232555
74.9447437463027
92.9532655622038
92.9559473460605
81.3535015103725
64.8258977473598
54.9829867257161
26.2639692549137
40.3967474786216
62.4598589220871
52.4468919626603
82.5739833410089
76.1343176290769
92.8734243753434
89.4814369977025
95.7061695611823
62.7551077517944
28.3769468463171
10.6632217634963
20.0651277794519
59.851975313282
58.8707902872536
39.6617059990157
34.0408733374064
33.1281218347623
89.1093353804758
101.14444638394
96.6466533574712
68.7893147761187
82.1927005296458
72.3861938619793
88.6825300215232
81.8208448515703
85.0432847700606
87.5892373636665
81.6925873422314
87.2052089833921
92.5985720307794
97.9448688504312
98.7658015198997
65.9283106555407
56.7113786590506
56.1509111414195
65.801667476079
72.5532307972382
87.3707976758794
91.6793266489147
82.4788763937974
78.2149326651073
89.7395806418813
72.5657991364381
85.7898417838815
79.2503179390902
94.1182583856635
92.164621600722
86.4565194825273
76.125554566004
86.7556744744776
100.653807967008
102.793977399715
99.7609406305193
101.98883746919
91.7774793443634
97.8574902368023
102.323726123673
71.2416538294094
71.6888879056291
102.996124582272
104.011758279997
94.0691908849483
87.9816866012802
96.0314066950494
92.5996121720764
102.400606985708
83.5993572589396
69.0868961383477
75.6994488245526
50.1951988152567
81.3748153395277
26.0025268398501
45.6111901065561
96.7618216354925
101.16818946822
103.384898778459
85.7497792105676
94.8533633279695
90.169571707557
109.036663226512
108.715415038705
99.8331809299126
104.644405070036
101.465595775663
105.270647145181
87.1487602155127
22.491852805253
92.832257449995
85.671563734996
96.7039352588725
93.1706377504733
95.61198437228
92.9580151477319
98.8104374624136
100.439386330848
89.3125660085144
88.585374184604
99.9917893488782
101.336066068949
98.2002598225966
98.0134446805626
102.300183130179
97.3342735769718
107.457143575464