/*--------------------------------*- C++ -*----------------------------------*\
| =========                 |                                                 |
| \\      /  F ield         | OpenFOAM: The Open Source CFD Toolbox           |
|  \\    /   O peration     | Version:  2312                                  |
|   \\  /    A nd           | Website:  www.openfoam.com                      |
|    \\/     M anipulation  |                                                 |
\*---------------------------------------------------------------------------*/
FoamFile
{
    version     2.0;
    format      ascii;
    arch        "LSB;label=32;scalar=64";
    class       volScalarField;
    location    "2000";
    object      nut;
}
// * * * * * * * * * * * * * * * * * * * * * * * * * * * * * * * * * * * * * //

dimensions      [0 2 -1 0 0 0 0];

internalField   nonuniform List<scalar> 
109932
(
0.000437722862222174
0.00299619476254713
0.00578239835713688
0.000837236476694821
0.000640172253432034
0.0095375839390969
0.0039990947307753
0.00115455144017292
0.000619813009253004
0.000622758239001471
0.000800716867416184
0.00740173632652092
0.0178869393112825
0.00069294502539744
0.00779463241311807
0.00471002649506485
0.000878137888719978
0.00341564114407781
0.000996120580122753
0.0108793751399395
0.020971715683105
0.0153586650947363
0.017253910450116
0.000744825296693207
0.00531209070141597
0.00509076181505672
0.00155782617737843
0.00554744522350999
0.00115511570306773
0.00351932390667247
0.000890627463841979
0.00481101688419385
0.0125702837591313
0.0229807330044794
0.0274338026543256
0.0142571227987651
0.0245478069133069
0.00929718319926014
0.00099808926059615
0.00175844776432004
0.00962741970460639
0.00981546496874835
0.00168018334457902
0.00504905548530791
0.00139633969677645
0.00114844561925593
0.0194895913009743
0.0110725526687712
0.018946638365913
0.0291912742570563
0.0280207154883305
0.034012168203138
0.0216176188957472
0.00966611315211216
0.0314305302148802
0.0132633322984518
0.0045787099632859
0.00196922291255052
0.0119077198402878
0.0127889946060008
0.006405238504457
0.0072175062765216
0.00124400413508702
0.00030335263370338
0.00105244988784338
0.00517956611125965
0.020463877668533
0.00550848898229652
0.0226446287148076
0.0364714780580018
0.0367673936215535
0.0393612451737394
0.0262550585497527
0.0127635291944039
0.0375498440895868
0.037466638979132
0.026886721543467
0.00620114297652695
0.00889382493935899
0.00747311594007638
0.01178254058026
0.00120538169092824
0.010573681801293
0.00165818826227961
0.010550778169479
0.000869455200741124
0.00722790135057495
0.00103177642112818
0.00109639040045421
0.00445831862601091
0.0218596453405209
0.0284611215797605
0.00103062867743994
0.00860041843106062
0.027990658639651
0.0293927038229286
0.0405472113249937
0.0383275819209752
0.0355252274154882
0.0423370700339825
0.0251330842921308
0.0395648707528455
0.0417928161724907
0.0244454116825031
0.0223275312869219
0.0431535798202662
0.0357012400490957
0.036140775112971
0.0350066651468384
0.00115081299122512
0.00575407041678879
0.00121708732249966
0.0142696249540884
0.00256974264070538
0.00664480864249405
0.00576119046296471
0.0263225235445441
0.00159103092825547
0.00447212273842573
0.0322576452466256
0.00111330830845348
0.0116879194167698
0.00293074543415768
0.000779820504812863
0.000902043649735566
0.0100812734403237
0.0277221695859397
0.00108999996037855
0.00372670934912981
0.0246416106523719
0.0332531131847938
0.0474267488536722
0.0459858396695074
0.0370319504940089
0.0479043820871671
0.024371995385924
0.0414617791998158
0.0445861978425867
0.0487976724014793
0.029682154648614
0.0248022066505544
0.0218013499093436
0.0437226343163694
0.0431473089952638
0.0323389801286706
0.0396267178130922
0.0011011449624056
0.0114084726585732
0.0013040570930994
0.0154791049991353
0.00718084560481827
0.0111755448379118
0.000980327040450693
0.00964096126392481
0.0243861515346137
0.00552215126672824
0.000972637127783739
0.00570876240285744
0.0355511895441845
0.00757666390016492
0.0119311912139753
0.000436442323723268
0.00670808631356364
0.000818871759429886
0.000777383971335005
0.00528179640842135
0.0211408950956615
0.0357834876503294
0.0221047846046603
0.00117782169337855
0.00639812648304704
0.00519772655741619
0.0355828564711415
0.0381893704161356
0.0540592519926015
0.0506005879584244
0.051500341710454
0.044630537921244
0.0450958376297614
0.0537706085511628
0.049485738731379
0.0332853898370464
0.0267019619147805
0.0474996529100183
0.0493679007834239
0.0382373348989915
0.0590698006642014
0.0303782789681837
0.0239687004535133
0.0214105145763526
0.0309497099533852
0.0450698318448609
0.0525698012401473
0.0427332930862573
0.0333721344943941
0.0399438594987229
0.00120225936226529
0.00618404185738309
0.00133786561723004
0.00928928363834519
0.00104226460820557
0.0237146733502289
0.00679560524252035
0.000946566723634688
0.00449590683312383
0.00109144132863439
0.00578868719075345
0.00112595573216989
0.011699080093804
0.0366899210524066
0.0256602044775668
0.00694694769746116
0.00286848693024225
0.00122617206338709
0.00112293998614618
0.00156278455547455
0.00991670895594849
0.0219691369401526
0.033674031040222
0.0252811297475108
0.0119333927001904
0.00137555124526315
0.00784964888179132
0.0374087299826461
0.0348130184403011
0.0381679192825501
0.0560237749936381
0.0570767298710168
0.0552250392015491
0.0506708072648648
0.0589999824901126
0.050989533371438
0.0475814297904505
0.0482774960397494
0.0647348121856696
0.0548951029075282
0.0609281374194437
0.0344610260532702
0.0129456393859917
0.0347875948441666
0.0548736319515692
0.0567465547239415
0.0432754383223599
0.0391867741643425
0.063557706303938
0.0654592645542336
0.0266705256306505
0.0296698038802209
0.0252508795883608
0.0308092313941505
0.0320241939035143
0.0434660991420156
0.0523191891427352
0.0523475588921701
0.0468425607162792
0.0408579270181478
0.0351598999332305
0.0531433359065264
0.00119964087738255
0.013315673620488
0.00703772008157315
0.00111483584730004
0.00121616251129233
0.0217099807794983
0.0101870738165093
0.00110235916991292
0.0049726035702261
0.000887420033695931
0.00120372215118437
0.0120785534690478
0.00447289630367163
0.028616996714522
0.0462956780107194
0.0248412497779207
0.00119408338391289
0.00600922122191417
0.00115275027687051
0.00126873079714438
0.00646165815942958
0.00696804260766582
0.00129557877551852
0.00762128140047658
0.0172181675262727
0.0228331645896767
0.029190879846161
0.0264659276275572
0.0382157717508952
0.0135367055569385
0.032766397627451
0.00131411211393683
0.00155946566835669
0.0108866930227035
0.0506357211800793
0.0368612037977225
0.0280070269645804
0.0462401740213334
0.0580435964015416
0.0596234655065081
0.0567826213933513
0.0630162948357758
0.0531007252457914
0.0553984216668214
0.0667403043162275
0.0598359350417621
0.040372086328453
0.0562611321595031
0.0670926477458323
0.0661189754763425
0.0653413196933687
0.0330092820105715
0.00797465754132788
0.0399298397762613
0.0586463529529698
0.0613800895908116
0.0352978891712785
0.0483388494003293
0.044974325871143
0.066939482998752
0.0693893865286
0.0691129311156145
0.0695063718132413
0.0311874091482072
0.0308300177999251
0.00909691137584949
0.033507099862109
0.0500911694167283
0.0567337552723549
0.0524641597917311
0.0621028488416274
0.0393479812339793
0.0403299674785885
0.0226755666097894
0.0543926232336616
0.0569817576324354
0.0013728632621829
0.0133003094689481
0.00141816374401566
0.00132131124389069
0.00515264357331815
0.0255180638689555
0.00419083734320635
0.00146917573426519
0.0105935405218559
0.000850172266362578
0.0011144533585885
0.0064272679986157
0.00114508149974115
0.0319812983733077
0.0504485102640323
0.0243357707832357
0.00151716845884422
0.00120599341142954
0.00130149699856221
0.0122396455897858
0.0011441833840927
0.0102329278034899
0.00564180799760994
0.0010433012343495
0.011420446077479
0.02582844019028
0.038278129656286
0.0291884553353301
0.0411978682179564
0.0399249382390515
0.00895104234875516
0.0269568525391046
0.00133020176420014
0.00119807620279656
0.00549899761410702
0.0563900901812217
0.0341533658148351
0.0477379618083809
0.0244446452492451
0.0585513068775473
0.0656705647160112
0.069523886948943
0.0621215524125121
0.0667418192068128
0.065056573495115
0.062254864838623
0.0635172329832876
0.0631955411149606
0.0627170832460486
0.0638669592042443
0.0560978588951822
0.0413596629440879
0.0630525581543315
0.0489106292430634
0.0610799325336648
0.0717417097118638
0.0697068622544261
0.0689334433106851
0.0265049845253047
0.0326361790192056
0.00129970607926011
0.0141374394042617
0.0420601501138723
0.0661201286666684
0.0649719237174432
0.0570957914886107
0.0395201871313166
0.0457144921896654
0.0383466977932098
0.0751353495063479
0.0696607595409711
0.0745497010876906
0.0342215615747905
0.0235276820135326
0.0058627445052341
0.00647755723781035
0.0291291941200576
0.0428317694766824
0.0512147051265002
0.0614321571835673
0.0490976676239272
0.0547514553365807
0.0666856280204423
0.0622575441605375
0.0392539358865166
0.0216074716000699
0.0571825647122745
0.0636087248886228
0.0578102092053729
0.0519494767679954
0.00747929925459305
0.00739909174606398
0.00652272357418212
0.00133026501017781
0.0102454684486203
0.0329389739179906
0.00758357344276536
0.00122271823828992
0.00105072051938421
0.0101960376557207
0.000822322542457798
0.0229919970976897
0.0303558917019621
0.0436306313976724
0.0508115938793688
0.00160148584144856
0.00404987066475268
0.00101806467189387
0.00652068447747351
0.000743818227581375
0.00608381912831726
0.000975367365807169
0.000718106571878389
0.00747549007813939
0.0210053494704528
0.0308501325305659
0.0250826475424192
0.0434817086414334
0.0214653172240687
0.0376532548079768
0.0417498381057097
0.0416646842867825
0.0143876717640626
0.0271601496026567
0.0328651025015739
0.00653891243802916
0.00136771991034646
0.00156106151836946
0.00891210439589363
0.0545512677698722
0.0635038063925722
0.0397823135067893
0.0268090140794305
0.0549047704957173
0.0271657463476804
0.0645103111751355
0.0610067667047999
0.0664816781554682
0.0712709204989482
0.0758199764627765
0.0704942116530703
0.0718715916673964
0.0637973793376543
0.072713444586235
0.0628944919342065
0.0686922575346616
0.061116731274007
0.0534575796296287
0.0669216790292484
0.056253537582237
0.0399219131861067
0.0802029628585124
0.0726035894986879
0.0732607476759348
0.0237100473696449
0.00143695668455191
0.0136085283132878
0.0506317547148019
0.0353132137709006
0.0766754286355167
0.0729244084018016
0.0577277489024451
0.0457143148646851
0.052271815461642
0.0426580260002271
0.079225898833299
0.0834685024870407
0.0789860524323776
0.0843552173568749
0.0265093477100244
0.0240362346469353
0.0106099328566815
0.0251121783567335
0.0020439892085088
0.0131878938714249
0.0372904491005606
0.046532851197867
0.0553950529582771
0.0610132157859434
0.0656611029128652
0.0599328711897162
0.0617881907094449
0.0730656974878499
0.068218209051922
0.0651953719842477
0.0474642808762006
0.0126351484588744
0.0581986991953682
0.071313250537176
0.0689755642078225
0.00140720228654536
0.0109106287689446
0.0120969637608875
0.00145406331353578
0.00650532638185519
0.0287930221969058
0.0412977053272062
0.0011218924241978
0.00683668967773176
0.00552989034235427
0.0127054412928717
0.0339787546942804
0.0394759944670429
0.0215171418243942
0.04422718408172
0.0453165814007843
0.05804360747738
0.00504295339667546
0.000962019868357349
0.00132084676714727
0.00632820571782907
0.00101507399140507
0.00519569195421584
0.0005796803490427
0.00115800335255272
0.00103373317166499
0.0115590369013871
0.0196710536408012
0.0386650621492575
0.0318366026252894
0.0443414386457723
0.0503135960710388
0.028280491533911
0.0363214663209515
0.0462636141646505
0.0330404619028843
0.0129320659996205
0.0351073672588354
0.0381109249194484
0.00126235461709883
0.00449082771033003
0.00502305552966453
0.00678581496517314
0.0596751222298306
0.0701435067723217
0.0653945212576514
0.0393952049583828
0.0332559868643903
0.0547623150903752
0.0336192491377655
0.0685765344603961
0.0572636475001605
0.0713435095936483
0.0741167327291477
0.0782643450268571
0.0765967733796259
0.0765371706121835
0.0698647053757389
0.0784120081551847
0.056665017844053
0.0709729431214985
0.0754714434327553
0.0667424702064944
0.0562467959732022
0.0734321791901682
0.0724780464916379
0.0577496959038168
0.0389963625247332
0.0801921044607976
0.0822728715550628
0.0858250023224959
0.0744577727881836
0.080106787291344
0.0253218013253427
0.00522922231255482
0.00508118824364619
0.00756449430686436
0.0452874624431442
0.0790588640338811
0.0838833797580445
0.0730274666317188
0.0618343196006671
0.0432483432900823
0.055445806602848
0.08744338809926
0.0902315834936822
0.087102170340617
0.0900052826743529
0.0147783231680155
0.026533135945526
0.0334741292573382
0.0278873169387832
0.00785207100036808
0.0117324803068295
0.00221868236908713
0.0157310587683164
0.0292913087506206
0.0432786716430315
0.044403043737835
0.0592926278000449
0.0627560097761979
0.0642954202371417
0.0713156509439022
0.0555306691086206
0.062304997737827
0.0788259347864019
0.070555553092303
0.0673733402830712
0.0754515710021269
0.0574168969791065
0.0675080295359256
0.0518946728096029
0.0758914100260785
0.0767113514126988
0.0697195726265571
0.00127668653325763
0.00494735214732048
0.00757300981621601
0.00125531148542335
0.0126613093617533
0.0400367871627113
0.00701756048432599
0.00171866241297381
0.00165939841132861
0.0118728848615674
0.00786504184822601
0.0295979118668343
0.0349079246639786
0.0120769323713658
0.0469028604117922
0.0475715317100995
0.0562960302083045
0.000882905165237919
0.00892229151071544
0.00238538262492601
0.00111802947500306
0.0155823402206845
0.000643896233743156
0.000774862058514189
0.00121140968753407
0.00565647993925378
0.00935027111340742
0.0223075486510865
0.0313111822873362
0.0456714582425022
0.0251552302797898
0.0529369749983945
0.0564044799367517
0.0281124559804666
0.0228210305504388
0.0383927885500536
0.047456601954893
0.039235396091842
0.00591520246742416
0.029607158284599
0.0406554173872718
0.00139222249967069
0.00142392285374853
0.00121586188409397
0.00553440754392804
0.0012515639564262
0.00688864690649887
0.0660062095167711
0.0773052599232432
0.0739837885033747
0.0366018803394187
0.0268941980533704
0.0612184025302981
0.0267287270642265
0.045492107839904
0.0731825002438576
0.0760339043821587
0.0622607894733995
0.07712180414384
0.0781401404067143
0.0842602716471708
0.0807676047202728
0.0811706986588018
0.0659196005998243
0.0759109843747138
0.0684074237876388
0.0816071713822989
0.0620251432276744
0.069778371292821
0.0766816398041822
0.0817786605147284
0.0778830488243451
0.0649862127871404
0.0651164348493876
0.0617322533177861
0.0621752537276724
0.0776032752754144
0.0699930512235055
0.0508811947191957
0.0510318942830802
0.0277207527327064
0.044377778341857
0.0879934671970189
0.0858634169921111
0.086496461246032
0.0928054638177335
0.0884297986874765
0.045195815157486
0.0129104323246822
0.00141095016529391
0.00141849260540477
0.00695621718017722
0.0793871335963102
0.0852117608403598
0.0920639709465541
0.0746046358714509
0.0762937301504941
0.0684870785466608
0.0487447772546074
0.0881517572401124
0.0903981699359585
0.0932450547787614
0.0962693478531059
0.0900895661479079
0.0899105542340228
0.0107057050580515
0.014432108212665
0.0376054119660258
0.0272455256277154
0.0403213337077389
0.0244780523552855
0.0423556737383365
0.00767488650574279
0.00808859845689794
0.0155871298174833
0.00713890263731382
0.0324517264431722
0.0290848469424597
0.0368007635033375
0.0500172788762129
0.0595754425447282
0.0598163767724351
0.0655834900513967
0.0741237901230246
0.0535606773428137
0.0599922322510377
0.0815059667627965
0.0850044947870117
0.0760011533778761
0.0700302436927664
0.084450910055636
0.0656096498361991
0.0811497267878106
0.0812347097195897
0.0777278830584653
0.0684003849368539
0.00144094016514721
0.00140002810351379
0.00566932201024279
0.0137081761325539
0.00135643784142305
0.00732688887365997
0.0511893384939969
0.00205164420761172
0.00156581724912577
0.00719276510503044
0.0129108624009943
0.0366454966847496
0.0382194544147848
0.00662200639262658
0.0592129060126352
0.0622886571456167
0.0569849273561191
0.0016443698743801
0.0088573142882516
0.0154611757162064
0.0010192831940556
0.000997604771369508
0.00331502420672536
0.00182241013255878
0.0129187110640637
0.014731203671143
0.0295499284961988
0.0381907511971793
0.0279551868223886
0.0470990182387734
0.0512316569558038
0.0567971869415135
0.0331323105128107
0.0244904282168834
0.0118918492205847
0.0222025979823861
0.0401976602549089
0.0453609739453419
0.0422034552276821
0.0340584997765058
0.00500742461352962
0.0105945072091291
0.0340749164249241
0.0490981177709245
0.00572238489114469
0.0010491345362748
0.00141667111947754
0.00110626163436559
0.0734233373710976
0.0697652081021182
0.0813268332849234
0.0796591656582032
0.0764973493659467
0.0475232415244878
0.030772016589856
0.0140421222780694
0.0677288528255958
0.0547629565902712
0.0310076271385873
0.0498000734571078
0.0798586247269552
0.0841991725828142
0.0588701356595637
0.0670842602404653
0.0800424238811506
0.0797294603647356
0.0881831668419525
0.0785144578918641
0.0870887243978508
0.0636459969282042
0.0674611053697198
0.0789001043467898
0.0767399597521044
0.0712203469072057
0.0869809058773129
0.0815456427830067
0.0721850581753205
0.076290778550656
0.0883867339471675
0.08522898246911
0.0776426801153908
0.0675486662271591
0.0570492850156505
0.089625179250168
0.0813180619121031
0.0729368092167376
0.0771739256726143
0.053483578845739
0.0461079160925333
0.0585924001899257
0.0142062720508258
0.033983908514787
0.0515093756131001
0.0957694681613099
0.0910165171833209
0.0958944781159708
0.102859645382636
0.0882392390304219
0.095568745676657
0.0489740766237453
0.00738776741066005
0.0086368124518884
0.00131713308971649
0.00129120593750796
0.00158133874357678
0.0878005068206421
0.0962071636290878
0.0857493345275241
0.0997626976485378
0.0785508715900249
0.0716886689098539
0.0544129681374255
0.0913852438228942
0.0919211973835333
0.0946839577792416
0.102084601017846
0.0959271045028015
0.106378711008876
0.0922752993131093
0.0933524241968625
0.00156854973225781
0.0061038406823538
0.027805338495996
0.0484107544443219
0.0361961143017099
0.0128934770803317
0.0328798053395098
0.0445432950816811
0.00299057679510986
0.00304370563204488
0.010060718669736
0.00137890734525189
0.00700274845866566
0.0382009748114768
0.0335905260756781
0.0128523240101049
0.0405109581130812
0.0587200209594524
0.0611531097449062
0.0696552878639815
0.0778755834716469
0.0576426209852715
0.055412878760861
0.0574367671481602
0.061917849075916
0.0882812383021402
0.0791039725450142
0.0704607476577553
0.078550423097744
0.0700538418094552
0.0908410033407253
0.0668278249814527
0.0686250439199737
0.0775966405922276
0.0804276473212654
0.076098934573277
0.0739633046224629
0.0502573415052535
0.0679338101898202
0.00705938695757683
0.00812671989347781
0.0098223168794825
0.00157541005441951
0.00203990054433299
0.00130003430727745
0.0130221023276493
0.040679050438778
0.0284852340216079
0.0278038285399338
0.0418149180435369
0.0127439648379121
0.0548752679054504
0.0743707899861971
0.0629383382203243
0.0593801204789595
0.00159139556963841
0.0054571793708749
0.00661465131545466
0.000532375178430203
0.00783212900551533
0.00187317579592825
0.0126410973327352
0.0158628215828564
0.0394474550749507
0.0273260161572568
0.0372468061344836
0.0475465049229566
0.0524341823824164
0.0644736129685115
0.0549874775747488
0.0357782977492659
0.0310679943825979
0.012026651210784
0.0150090924760175
0.0277393672256414
0.0447898758569986
0.0382521206879915
0.0530652417885827
0.0503862872948156
0.0371641988025447
0.0343020160433471
0.00146095191342954
0.00761756165148013
0.0257332932891097
0.0391543756632462
0.0497454168038023
0.0013097516636033
0.00752837681731871
0.00785237841662911
0.00137154963313661
0.0745178132352153
0.0751483634484239
0.0651513725432394
0.0860294150010782
0.0856160979818631
0.0763996081809193
0.0486761646604163
0.0179836212901697
0.0426154936766521
0.0624620228975504
0.0756624927377327
0.041928015487058
0.0144181032692716
0.0385390878119744
0.0737755707722533
0.0847326229890358
0.0868598620454307
0.0503109749219847
0.0749207840624546
0.0804885586166811
0.0902933527165823
0.0850509303765832
0.093447351308438
0.0864369728685748
0.0624053333727079
0.0634412097346611
0.0733286460057715
0.0879187996053287
0.0853266694523698
0.0711753366584496
0.0889763630051375
0.0767284654756538
0.0784334590181367
0.0864021650997272
0.0970520535467484
0.0956635138044562
0.0841189510171135
0.0707698434637343
0.0622143627057949
0.0974957139737347
0.0950332238226314
0.0826680604220241
0.071151703982744
0.0876179485404896
0.0502843250305343
0.0639644144565161
0.0102340446336511
0.0165825410528962
0.0472944589724644
0.0967858319260841
0.101755921905856
0.0958071613561853
0.0966106043115546
0.109749206373217
0.108050029166703
0.0977367037854627
0.102497017534028
0.0403752645663801
0.0523847633750892
0.00161242108320833
0.0015321067298918
0.0164160942602871
0.00166723751431341
0.00105722348487064
0.0958748619449093
0.0946201905164524
0.102732401650128
0.0906644393999108
0.100712819892738
0.0871983860451885
0.0647283472317429
0.0519595460885261
0.0956693464904383
0.106051542585405
0.0920029379265472
0.107028856290017
0.109714959620907
0.105972694195844
0.110115907174752
0.0967929435497074
0.00144185764473651
0.00560043958184874
0.0345152829956391
0.0118816359271431
0.0266192115722769
0.0283621058867835
0.0412365320533269
0.0144496721714804
0.0353518511055133
0.00910776332874221
0.0136709222156019
0.00101061873864484
0.00114709851463451
0.0355336249790823
0.0407695530000124
0.0217548072894699
0.00717560482554646
0.0403382860731674
0.0528098170245496
0.0589479809681994
0.0626954304470319
0.0694068902738643
0.0741323010971081
0.0870851072238061
0.061234963515227
0.0607286709485639
0.0931394551456949
0.0728398716758268
0.0745537134679245
0.0862435678839661
0.0707534162407848
0.0717880152159054
0.079788109265996
0.0846813694277972
0.0750884182066268
0.0953686213786026
0.0893094791716903
0.0621929994001623
0.0708901059596632
0.0847634769471162
0.0796803473570033
0.0941525791498007
0.0774215085389887
0.0698375568548261
0.0454532864666719
0.00154869811479885
0.00157744908796532
0.001723668350727
0.00167425687134664
0.00793735519501296
0.00125272737873374
0.00582110029563303
0.033288033636007
0.0301702871745908
0.0383889393122586
0.00773671311528352
0.0533102892100926
0.0650737532523201
0.0848869745655967
0.0599787443064463
0.0711886734186866
0.00153742259779418
0.00156470101716661
0.0061675714946599
0.00166386122024591
0.00533896062679878
0.00478983904914653
0.00567948734384902
0.0300538997267637
0.0085964231662941
0.0139036995342971
0.0409132992425454
0.0291850700085237
0.0350301954288393
0.0446855396676208
0.0386283367729025
0.056487910220424
0.0678390637911713
0.0651064858686517
0.0367969117681681
0.0300352810211491
0.0109175929741803
0.0153076555881314
0.0422552657795622
0.0537601456558748
0.0402492262324824
0.0522903248785903
0.0529786094923396
0.0459333347504254
0.0239669648703489
0.0369888222240779
0.00142292901829664
0.0142085140957164
0.0324967653060079
0.052969275387941
0.00137165855786358
0.00191386107331968
0.00625819455736796
0.00482745317775667
0.00441299936884576
0.0789843440527109
0.0780278139216709
0.0814827491048571
0.0680445066735173
0.089424653232455
0.0890174535700181
0.0844482102369959
0.0489220435672378
0.00954683975776193
0.0426506680041901
0.041857199950732
0.0639885760572136
0.0802261704177107
0.0435216876482703
0.00950628440467325
0.00450868246607332
0.0296643469045363
0.0782184598801576
0.0938521735907689
0.0950160702024181
0.0621787614216414
0.0780884076451993
0.0893120708856318
0.0958319867159867
0.0915732160523591
0.100766335077925
0.0654330303656962
0.0644596962338228
0.0694625612216366
0.0928618698862648
0.088775515363323
0.0856611063221764
0.0856667849286129
0.080392947536681
0.093219811125233
0.080684550403281
0.0860052296998443
0.0697899723850992
0.0844119577616446
0.0938111235575707
0.0979595621182359
0.103551839659535
0.0936686315000942
0.102402315596521
0.0775975190016661
0.0653756597213362
0.0995360085777358
0.102324760724516
0.0979526608700894
0.0776347758531732
0.0879151179316385
0.0780786567312676
0.0878604930740952
0.0584615211484503
0.0391400683311647
0.0606936635988308
0.0157829295106108
0.0148558797611831
0.0530886699399545
0.101744988904617
0.110416277672826
0.101916471113065
0.0940335887858769
0.113221109506954
0.112123973325079
0.10845583921295
0.103999286066453
0.102468928419948
0.10796277887759
0.041012224320913
0.0688822321606035
0.00149357882960839
0.00664322924870104
0.0164474707855945
0.100265722458357
0.0974948139538796
0.104332201129641
0.102718391636643
0.107700869385409
0.0565446517100965
0.0501877240199273
0.0963145058906839
0.101242355485782
0.111518408291464
0.104568988719567
0.0966562545534582
0.114727410183131
0.11099458948437
0.110128547314246
0.105175383714668
0.115147969168068
0.115063134065114
0.0996835515831866
0.00146114026227852
0.00175788515705492
0.0455248399161435
0.00770761726059657
0.00770266002950812
0.0151010732191184
0.0349018122537183
0.0346964058188134
0.0153630027926269
0.0268313805496246
0.00609268980599546
0.0456642865795305
0.0364530834401143
0.00107214260655375
0.0089544612133305
0.0230604498201203
0.00144140281349093
0.00135813727583256
0.0454498959846069
0.0369531788567418
0.0090559993147646
0.0326023188969761
0.0129795676491675
0.00139093914079798
0.0516967903516443
0.0628679450156516
0.0594475491268281
0.0822051962662204
0.0878426882500411
0.0566685174528931
0.0626434253268916
0.0678153863446999
0.0965351358089358
0.0926843863266042
0.0733058947920569
0.069082157717519
0.0784474598511475
0.0876005105945707
0.0837014108769023
0.0702504073364533
0.0884748256346208
0.0765879404927154
0.0843942000595165
0.0718369291443588
0.102656106359109
0.087103024540463
0.0602503809059492
0.0845939624903749
0.0882161576208589
0.088440101708402
0.0733342248813273
0.0999603674237682
0.0973667911352665
0.08910321911523
0.0779466019057541
0.0510175167703059
0.0736791628521551
0.0418119974186376
0.00159245310681823
0.000951249426341096
0.0130136185236797
0.0298141722488655
0.0351705780415878
0.0226094754856508
0.0336947351921348
0.0312989078297228
0.000992344638940252
0.0138776120780399
0.0575082570990865
0.0557450765632807
0.0698428270097123
0.0903181327387299
0.0673477454994658
0.0504765307511097
0.00141461759189706
0.00161320572603775
0.00168675609690535
0.00178490224026306
0.00157986693873989
0.00720880473986872
0.0012517479085753
0.00675447435085232
0.0276796495003832
0.00145463153849792
0.0128555696361154
0.0236671724270454
0.0505507964270997
0.0320777006327559
0.035490692699524
0.045420947751938
0.0575331036108033
0.0746048536207393
0.062938067771748
0.0612252530288036
0.0727481250491493
0.0348158870110458
0.0315078429655263
0.0365310134455849
0.0212782127875171
0.00599174670508331
0.0130272110961925
0.0466727432019772
0.0525271479160014
0.0517818272592931
0.0473973984783018
0.0422095061630717
0.0135122246736499
0.0323018781330845
0.0291938449516585
0.00730259551073843
0.0292861167247702
0.0384897393331933
0.0481176596873531
0.0629000469049285
0.00717118153046515
0.00185315650101584
0.00537745692347002
0.00115712887505789
0.00484212370129371
0.00208927705769805
0.0851163772734073
0.0870451842652996
0.0935162547639974
0.0681691990666132
0.0984907391573903
0.0970370108771352
0.0885034934329804
0.0443921244882725
0.0075676704785738
0.0407674613002699
0.0351948222491716
0.0410523308302002
0.0720966941823693
0.0889536117626482
0.0750990855605803
0.0446885510384931
0.00141440247638233
0.00137806283624723
0.00523851089287217
0.0262016049459486
0.0136955607030438
0.0880857793617827
0.100091459299754
0.101287455427097
0.0576482613402863
0.0583637847122229
0.0862508215215601
0.086395953675775
0.0956266133730595
0.0978386770220879
0.0932034002981131
0.0958927963481716
0.101556502110998
0.10637046050966
0.065778797480939
0.0633394302459771
0.0701227743896657
0.0729383389686616
0.0965562307158708
0.0887390541324614
0.0886973501439162
0.087599815324299
0.078338738592109
0.0915186822239837
0.0787980406250168
0.0743825670051308
0.0961188372415615
0.0783984190770941
0.0770455335026439
0.0936655221943211
0.100636980854349
0.101631978595374
0.105197985142308
0.109702547877939
0.0986918961120587
0.109060233649937
0.104656454774919
0.0613667211039238
0.0657975899491152
0.104757984042268
0.103100547655859
0.0838871312088831
0.0766975613069643
0.089079313576096
0.0846902654354718
0.0981068680443503
0.069120899359973
0.052260349104198
0.028343819898426
0.0537559232639532
0.00733329583127907
0.0107348727774932
0.0108259924024983
0.109611698362136
0.114061498182785
0.113491009909008
0.108969422604897
0.0981246928005716
0.121441248729095
0.121045017576302
0.118137813371115
0.108383229803901
0.10185300031361
0.104146647103766
0.113431346492258
0.075164127315663
0.00194069477577891
0.0127288767783203
0.107715112430311
0.101668931990923
0.116521849513491
0.117014437102019
0.114702208237151
0.0560731430790572
0.106766781516641
0.108110770349476
0.112550403028926
0.115815721799534
0.104312782712433
0.0979759035295422
0.122984705882346
0.119029386327499
0.111079480637949
0.107818333656844
0.127924589351232
0.127782818147226
0.0457738306737519
0.042618801606519
0.00175375347190229
0.00189070590353578
0.00906940137173133
0.0427052456711469
0.0279248820903326
0.0333849521012051
0.0102664929256625
0.029726118723762
0.000998946965444794
0.0108423664863327
0.0474785621644867
0.0352955593155336
0.0428730759944845
0.000717640333438737
0.0153595300796462
0.00728121440355187
0.00740690512551995
0.0166179914763558
0.00599674132796997
0.0278364384057273
0.0387530762758359
0.00869664784686698
0.049266165270792
0.060861368529344
0.0578543671652996
0.0820508813059029
0.0937501282842715
0.0571107377680535
0.0551143672462891
0.0662408389792538
0.094944918789735
0.0935744152735448
0.0781185398512006
0.0694765378818771
0.0696709278401808
0.0775446830312888
0.08978505471371