/*--------------------------------*- C++ -*----------------------------------*\
| =========                 |                                                 |
| \\      /  F ield         | OpenFOAM: The Open Source CFD Toolbox           |
|  \\    /   O peration     | Version:  2312                                  |
|   \\  /    A nd           | Website:  www.openfoam.com                      |
|    \\/     M anipulation  |                                                 |
\*---------------------------------------------------------------------------*/
FoamFile
{
    version     2.0;
    format      ascii;
    arch        "LSB;label=32;scalar=64";
    class       volScalarField;
    location    "2000";
    object      p;
}
// * * * * * * * * * * * * * * * * * * * * * * * * * * * * * * * * * * * * * //

dimensions      [0 2 -2 0 0 0 0];

internalField   nonuniform List<scalar> 
109932
(
-1.13113582901259
-1.14653014532882
-1.15504623497707
-1.12076987477071
-1.1769169355804
-1.19261585292462
-1.19488214500767
-1.07702764517858
-1.14256859249964
-1.16144871113106
-1.19543520702386
-1.13121670552593
-1.08085221136252
-1.25739451463981
-1.19232473820451
-1.09419670499131
-1.13413146717355
-1.16744335563674
-1.25054379383643
-1.11702465127927
-1.11151724914542
-1.28735755637281
-1.10265520910415
-1.25223071054253
-1.21816054556168
-1.21687608047906
-1.00438931081752
-1.10869947255778
-1.11960918547329
-1.17753964973172
-1.19521961879269
-1.17983330309044
-1.10816221648657
-1.19951062958348
-1.17943181660389
-1.15410694926233
-1.07719019319934
-1.10101063365268
-1.2814552347956
-1.25967170400717
-1.20324186945435
-1.20704740500474
-1.03236753781792
-1.16908737081944
-1.18339909877973
-1.21373889463003
-1.14290131740879
-1.02414519172989
-1.18401687299755
-1.17222273807347
-1.13375046406554
-1.14687604685071
-1.27167530318768
-1.15818901512529
-1.25264365750243
-1.12348852310086
-1.25242070617086
-1.27379679183779
-1.30413284853419
-1.20819520865877
-1.02517567714467
-1.05215784924252
-1.10128043156308
-1.18323505178219
-1.18824088850058
-1.21866437139809
-1.16318246731985
-0.98754455218337
-1.166912609541
-1.07368873983512
-1.22098470374921
-1.19636227795721
-1.18635755786765
-1.13489399314841
-1.2227221397682
-1.1789838000967
-1.20735350050208
-1.3296428491762
-1.30057417287041
-1.24786382004956
-1.27905313241663
-0.927388668128754
-1.02159462804826
-0.998589053797317
-1.08517677078798
-1.14317140046414
-1.11529835814496
-1.21914248632941
-1.31020665397921
-1.2471332188432
-1.07976019313382
-1.16213397976815
-0.936695594901148
-1.02909909209552
-1.24642342797005
-1.32051471162001
-1.26980702696366
-1.28130712598976
-1.25713038491716
-1.10387949942377
-1.37122576364382
-1.25537451581592
-1.18477035962172
-1.30461383514338
-1.08886365273393
-1.14565222681011
-1.0407275986255
-1.10557179519462
-1.183605476302
-1.39013180869156
-1.29497800715219
-1.38446591903191
-1.22523777029538
-1.3183005051385
-1.24199784543853
-0.981277758686807
-1.04718164805266
-1.01360955240489
-1.01358158888127
-1.11033860754075
-1.14377341665995
-1.09952956073352
-1.19374452099864
-1.29600312849561
-1.29251943389763
-1.20609933712183
-1.16511980671357
-0.94409749991196
-0.989835864754749
-1.31221125354907
-1.16092112025742
-1.14178301542641
-1.17469986891573
-1.16512195196282
-1.17329991974518
-1.21623314724531
-1.22767227857676
-1.17903424192273
-1.15048997705661
-1.03023542310438
-1.12388178771958
-1.19774257908584
-1.1453870251604
-1.23867677601776
-1.17855293340421
-1.10337578755574
-1.35170926214538
-1.31879704265074
-1.37054615141482
-1.25954256787891
-1.32538513270091
-1.25326823835619
-0.949845626579138
-1.00767955918588
-1.01390179436762
-1.08430809765225
-0.955734270709832
-1.04098772225112
-1.12085070981625
-1.22917772009301
-1.13690570661763
-1.17939327482652
-1.15968924056315
-1.3036887893702
-1.30694252007407
-1.25357908916585
-1.23076499290134
-1.11482574844232
-1.0635402481639
-0.932141083539148
-0.968321269651339
-0.999157058602262
-1.09965388508199
-1.14861737226908
-1.12431155046112
-1.23160713377971
-1.10857670169969
-1.25003392120602
-1.20025689858028
-1.17129964013027
-1.16813314773882
-1.2397776436866
-1.26970834376458
-1.06156966533732
-1.30325111850179
-1.25040245225885
-1.20455459452218
-1.28438610284165
-1.22733456801922
-1.09536665396348
-1.35677949257551
-1.11331212413121
-1.20070398884732
-1.15127478926764
-1.19210895016779
-1.14297063354057
-1.36629118409397
-1.34505084994663
-1.38306385615002
-1.35908848312672
-1.40777857845274
-1.233712847121
-1.34756144293572
-0.951770616743024
-0.976520298609876
-1.01717664151492
-1.06880782473757
-0.97226413261772
-1.01029713783172
-1.17086159096296
-1.08541853927865
-1.08361387296707
-1.1798397325863
-1.32067873662653
-1.32590125931954
-1.2368883579803
-1.21689358913167
-1.24787621863263
-1.09652918890833
-1.04370672564602
-1.00152602734613
-0.928694095782771
-0.987267805630766
-1.25691352235771
-1.27032552234649
-1.36510081642704
-1.19386828620939
-1.17476095288857
-1.11642527581122
-1.22458053662729
-1.16349153008069
-1.32306473486526
-1.20519978711847
-1.19099278914025
-1.17573777459617
-1.23668419532461
-1.12259581472106
-1.17046938764433
-1.31339738547002
-1.27069535718892
-1.21752317277857
-1.04962068794191
-1.13145794226497
-1.26711733573362
-1.09247378095941
-1.12418385604538
-1.30410029338558
-1.18538733069974
-1.108341219759
-1.27082450655576
-1.13273487062689
-1.21942480287719
-1.191766556953
-1.12897290406165
-1.0946833081645
-1.19625513124169
-1.1378325013704
-1.14491241406327
-1.38683909414626
-1.31641221242638
-1.35955796616098
-1.39640465765986
-1.41392200385397
-1.27617401448457
-1.32724574388704
-0.943288877441222
-0.99526347765395
-1.02409782661149
-1.01066862375163
-1.06867477417342
-1.00084245269622
-1.13095170717567
-1.11316338986016
-1.0491362123879
-1.00603947673353
-1.13194396400883
-1.21221193373064
-1.15404976293056
-1.3348362468186
-1.28255240515466
-1.21491129142712
-1.2836031716771
-1.35001375125504
-1.2330893688972
-1.25205030873251
-1.081867774138
-1.11437036942456
-0.981044465983197
-1.06554011590628
-0.941492466766774
-0.932344862344842
-1.00932299344703
-1.23211088503828
-1.07782978815294
-1.34718576602264
-1.306194113528
-1.12221212347063
-1.21836079885066
-1.18942242411425
-1.29294693572875
-1.23021597088497
-1.21426218234084
-1.19066546670369
-1.12366440992781
-1.20366222653074
-1.3070956134313
-1.2986699023909
-1.07711210375179
-1.01970206454809
-1.39551796739751
-1.38897432503505
-1.31224115153101
-1.14544284634787
-1.27429051909312
-1.04071159210284
-1.1899098301072
-1.27461633874072
-1.00031674091974
-1.11524863837498
-1.2379232825534
-1.10131242930273
-1.18018605750855
-1.31547889590285
-1.12434151388065
-1.2012806889878
-1.22915046049896
-1.04538182950046
-1.22175441616023
-1.08787370753137
-1.22133212044103
-1.14983202556665
-0.967936482581427
-1.07365209878848
-1.09101088702398
-1.38087843020494
-1.36439018019553
-1.42526197764277
-1.40893693034845
-1.35625540556584
-1.28401321542194
-1.00142001038854
-0.941869030390706
-1.01455134717109
-1.01325434028384
-1.01442530636528
-1.0176584294561
-0.94150695658319
-1.14024576971778
-1.1490744525171
-1.10607739065252
-1.12404180140077
-1.19767417752218
-1.40593875769563
-1.33303692820173
-1.38836337401267
-1.2638563526201
-1.17959701831513
-1.37376665933084
-1.21463022603677
-1.30884828614779
-1.22702440238319
-1.11724325351405
-1.08207929367983
-1.17641461927275
-0.97327874132176
-1.03463007746606
-0.94272060931068
-0.94397739757662
-0.958996007353212
-1.16325130002535
-1.24391008460923
-1.3374937255409
-1.28167920722899
-1.1724988767851
-1.19754519222962
-1.0878748727453
-1.07129815084834
-1.21754589729543
-1.13602742758703
-0.886973030053419
-1.13544420726203
-1.15981860195604
-1.09968199098478
-1.18579848610606
-1.16710389160604
-1.26354612720507
-1.1521638263946
-1.33296270531031
-1.22880998711171
-1.10283564591408
-1.30118416159534
-1.07889057800009
-1.39386929753417
-1.31035259749301
-1.42500111285297
-1.368920493292
-1.11130470216447
-1.22948994141974
-1.24274716711638
-1.18453503081365
-1.26420875998991
-1.23549450122168
-1.27216118532534
-1.26728116101266
-1.29387560639745
-1.16371042090154
-1.21419184868809
-1.11289430021103
-1.0913647601164
-1.16023976638915
-1.08175795993306
-1.05708015805205
-1.04862824780881
-1.28459830765317
-0.934885098508302
-1.21512862817553
-1.1237846770772
-1.11623406659547
-1.16684341883103
-1.03094548297161
-1.1340996577521
-1.22406437978644
-1.36678732455477
-1.2371289048672
-1.37591625999353
-1.37652344033195
-1.39933204421366
-1.41132450570824
-1.34517244930372
-1.22051407969596
-0.991090281643361
-1.00712157488037
-0.954324616136739
-1.06566260057446
-0.962896242671136
-1.0185377365879
-1.14570008100548
-1.10528404193336
-1.1433965461571
-1.10685038281047
-1.19721865815705
-1.39852931777928
-1.33404863110636
-1.36851877843373
-1.32008877871335
-1.1856461601474
-1.36595366708364
-1.27027397378529
-1.30958322064235
-1.11086938671101
-1.14090947372027
-1.25384668217539
-0.97985114201412
-1.07803355859254
-1.18998887495978
-1.1201237062596
-1.01461693842042
-1.03866245278861
-1.09715475941769
-0.972480862704993
-0.935059900132387
-0.945364253798434
-0.976110809733962
-1.1998860882763
-1.22060912068511
-1.22313411874253
-1.31235732965373
-1.2307958896246
-1.33745926818306
-1.16007657269071
-1.21320172206634
-1.18823738883251
-1.10951483788168
-1.16882482296122
-1.24293168313663
-1.09087571204187
-1.21410622860579
-1.13750827184712
-1.27963918581221
-1.32347342689872
-1.09666161985287
-1.17327846119236
-1.20081344590117
-1.20769745941946
-1.35352226107667
-1.27380723949327
-1.13315856423672
-0.957200379574224
-1.31360214130837
-1.40839546169977
-1.39661674844117
-1.26626626389896
-1.30558243445629
-1.06385615611083
-1.18844242271632
-1.32852003137324
-1.20183551644908
-1.20486660282784
-1.29135271410373
-1.0695642612986
-1.10489157140958
-1.044277533285
-1.14046959389287
-1.39222161841941
-1.27222671673074
-1.16767657877467
-1.17937006863454
-1.04931430445804
-1.10679029725417
-1.16078831916304
-1.2625117837204
-1.11040781624632
-0.991972411147985
-1.22502900823953
-1.23297807853266
-1.16017725943081
-1.13317207959381
-1.21647039702274
-1.16500769593603
-1.09000291837423
-1.00839164327355
-1.1062280005654
-1.21218107321815
-1.10409556312475
-1.40409762881824
-1.34176425048601
-1.38112224956182
-1.43795109346307
-1.39350129310337
-1.36740526921141
-1.32290034629425
-0.95566263848069
-1.05058727480368
-1.01488457721413
-0.9946466946434
-1.07019743952196
-1.08544657723952
-0.962950679687341
-1.10367095802866
-1.18815390962937
-1.04629196068089
-1.18920441614164
-1.13309892291076
-1.40619499058319
-1.3297144303327
-1.37331242043693
-1.32742973472189
-1.17795716284686
-1.22560135220731
-1.3754471387916
-1.27678068347977
-1.25405385110257
-1.32592272804131
-1.3365573779129
-1.31453697984439
-1.32439378336418
-1.0312919667253
-1.05541708673516
-1.13859501786143
-1.03967797785033
-0.956954180322109
-1.14485611245146
-1.09285928350408
-0.944989740842012
-0.971994462233751
-0.979891380899639
-0.981631918985926
-1.24623066635147
-1.32012130714176
-1.25649497956053
-1.28885799938458
-1.28322994997876
-1.17448812944631
-1.29966035717117
-1.32422301016404
-1.15984425970281
-1.14077804750073
-1.11667133977993
-1.08412957840292
-1.18160792682477
-1.18540107806282
-1.21122396663735
-1.20967651108392
-1.25886619684523
-1.06612770294248
-1.36713462580832
-1.20405381730365
-1.12389496108168
-1.35946466347952
-1.27591550393629
-1.31396263442685
-1.14918245355354
-1.05944973232772
-1.12542952538525
-1.24124498465012
-1.04211012272839
-1.54031055484817
-1.38869015180546
-1.40261861129316
-1.40806584029717
-1.38297268264692
-1.12826802036028
-1.24764164807918
-1.24213327544904
-1.11508966446362
-1.11340158183154
-1.25014041965917
-1.07249064903097
-1.24218103357344
-1.11279450509835
-1.13534040244454
-1.22612436190804
-1.33309418766377
-1.34685746394251
-1.32661082548215
-1.27615226517851
-1.16697051730361
-1.15582344550817
-1.05359174251503
-1.0510820253172
-1.13677770305933
-1.13730658303432
-1.12526766868955
-1.21474591145654
-1.18225131453354
-1.01593790029543
-1.04941198492495
-0.9476846974728
-0.990085305185211
-1.16902201250683
-1.18429348089842
-1.12913201781043
-0.937693989996466
-1.16081289731715
-1.13232652719352
-0.972821724843071
-1.2030550633001
-1.15152228459062
-1.1453152418444
-1.38953442689001
-1.32991907102514
-1.38035927492001
-1.43951415149635
-1.37227728845375
-1.17664206961292
-0.994154129211513
-1.00254551929786
-0.980178366099288
-1.05271201938562
-0.993504899450138
-1.04415537941595
-1.08090496822296
-1.02433458326446
-1.10285378360563
-1.16505094056901
-1.14124343667743
-1.15286920396792
-1.41168449748533
-1.36177514585331
-1.38466093996615
-1.3614340969094
-1.15952267139297
-1.16421131948526
-1.24054104689427
-1.3310186818446
-1.26885563869417
-1.32669063271847
-1.19657700297816
-1.21975757866869
-1.32605395433245
-1.17251707701184
-1.23230377290915
-1.06850314802816
-0.976208185809656
-1.17767097771695
-1.1264323723189
-1.01608176470296
-0.961894705030484
-1.03481004324669
-1.09154117919662
-0.942689288901339
-0.944944730180477
-0.930329815860611
-0.968602932375811
-0.951266157811123
-0.975434331268653
-1.20258070442671
-1.18030882117742
-1.07415746784878
-1.19084092465014
-1.32598920324175
-1.19352102943852
-1.33249819851632
-1.25229568287978
-1.07080602457717
-0.986243490127242
-1.1680882550699
-1.0654865920473
-1.18782032971665
-1.25105457102708
-1.06638107171186
-1.11652239504002
-1.09131776029908
-0.948861511147521
-1.01683766854289
-1.11210610535909
-1.30959559824412
-1.28387095749015
-1.25539523517139
-1.21055987226288
-1.3855417283811
-1.28621836950638
-1.01004265462235
-1.39864021058469
-1.22686789445874
-1.21817383334564
-1.19999976529067
-1.19399783947214
-1.29697003452336
-1.43314862684624
-1.25851862066131
-1.14042895204463
-1.16857613968475
-1.11237268017157
-1.02097079541187
-1.19411806592507
-1.23780989698007
-1.36543357507888
-1.41325614405608
-1.44507647243557
-1.40046329083482
-1.13387099658038
-1.02343810837941
-1.19180444663637
-1.21512127746482
-1.27642742149946
-1.43337440017287
-1.20815398513657
-1.21614703250275
-1.11275872082924
-1.24005717267212
-1.17910586122241
-1.04656393116183
-1.07489651919978
-1.38044877132718
-1.41895775858964
-1.27075994889197
-1.18900747209282
-1.33329809905643
-1.17718797872806
-1.26295245637739
-1.16514475569449
-1.16040561961144
-1.20791677431659
-1.04034358675317
-1.09829083593976
-1.12393567468306
-1.14872706246298
-1.09554180959293
-1.08575907208601
-1.03184792129604
-1.01626644929849
-1.09364721658891
-1.05883123408349
-1.07731500363819
-1.19649842816301
-1.08637910325434
-1.20295290120216
-1.07629594719288
-1.16904543709519
-1.22695998062513
-1.25417138181349
-1.15308950414323
-1.14039799314378
-1.0448168839384
-1.41612218287106
-1.40098683315268
-1.33838136959226
-1.36933345602533
-1.42588439783692
-1.40212186884096
-1.29233004418025
-0.959511187570998
-1.00897841336957
-1.00182629930661
-1.00178040677815
-1.04222215774487
-1.05664339757683
-1.00900538513384
-1.09423890234724
-1.19115634022307
-1.09078482058403
-1.46399581423948
-1.38132042354768
-1.37810100845699
-1.12803532594052
-1.15797312989816
-1.19410529419706
-1.36609132172435
-1.3124196732091
-1.23930846695458
-1.23171757878128
-1.3204736771904
-1.36672977492133
-1.24403281479152
-1.31297022503826
-1.15768397021192
-0.985803362575024
-0.991191852985005
-0.956033949652637
-1.04757026063877
-0.995362422356592
-1.0890765634495
-1.12638675362444
-1.07613088971892
-0.972624289784821
-0.98329992381502
-1.01538994205074
-0.939816559947594
-0.975508711239369
-0.948430657614607
-0.946059844361322
-0.957500753362761
-1.20829757782926
-1.11712981023809
-1.23634276973913
-1.36297886402085
-1.13585033317818
-1.31608384982458
-1.29832229953646
-1.38719089893254
-1.31221821711543
-1.31692141632885
-1.33017615424613
-1.24098108986764
-1.05796365724884
-1.25993485297843
-1.35189131379057
-1.38611053112554
-1.1022120301373
-0.941673726287629
-1.18196731828885
-1.12452473460332
-1.11840428222158
-1.09807119330904
-1.07493618319772
-1.0929951973417
-1.0229457214218
-1.04211835321307
-1.09607982167715
-1.10621985314351
-1.32729402245617
-1.08047364546424
-1.15443287910343
-1.34092242086997
-1.19193271497722
-1.15541939443221
-1.36987306364758
-1.3060963485816
-1.10072142473915
-1.31050027302043
-1.13902519402134
-1.35156769544039
-1.13230052209409
-1.26733959087816
-1.372106467492
-1.42683089469791
-1.27828877913824
-1.17417662273162
-1.18532703450706
-1.25885842248416
-1.27581194345578
-1.07328930936748
-1.36874895165582
-1.17386738499848
-1.39483603471204
-1.42243751397724
-1.42810943429571
-1.42927793976633
-1.43006694965873
-1.21353825439399
-1.2649409609993
-1.05770073336736
-1.11757560202173
-1.29811643413127
-1.11198237904203
-1.21366950762655
-1.22507381011757
-1.0435483641342
-1.25531170483126
-1.14239368494632
-1.15326890519967
-1.1665193482051
-1.1080288462647
-0.985586702052417
-1.44553573668492
-1.39844030253808
-1.38692594368616
-1.22190897558708
-1.32183104685776
-1.18022580364308
-1.26178449906955
-1.24858446857711
-1.10893572863101
-1.08440020065079
-1.08675824174719
-0.988715736572188
-1.0626655406416
-1.17980675052764
-1.09021650506584
-1.0459915890413
-1.10917017511885
-1.15097130426908
-1.10072056796485
-1.1929015567351
-1.10635504557403
-1.08855800328753
-1.14324803305855
-1.0086538038913
-1.15538199011192
-1.13276628646726
-1.02329878590272
-1.12828810112441
-1.10579025547646
-1.1949690436137
-1.22619277105211
-1.29487994439846
-1.17369518505873
-1.18077395217854
-1.14115796307808
-1.28516897728116
-1.18416615033652
-1.2936256953839
-1.03499356238988
-1.40237651763708
-1.41184536347985
-1.36834622871217
-1.43341627204749
-0.97477673664173
-0.96775685607488
-0.997961286064788
-1.04560911687956
-1.04825306216007
-1.01958475011879
-1.07493218943575
-1.03434025945272
-1.0876901593845
-1.05824439102193
-1.19229757989942
-1.13013868493835
-1.4285850039892
-1.40019067370721
-1.18979507720633
-1.21872382528974
-1.21359642993118
-1.38244327760179
-1.30294761913549
-1.33939655792686
-1.22114144483857
-1.22111764744754
-1.21761047943801
-1.2886968967853
-1.184083337259
-1.19560336366576
-1.28737899883417
-1.08304472856415
-1.03191112149176
-0.981122035450765
-0.995479343841895
-0.995645892939259
-1.10346572985518
-0.992415553328636
-1.07098008433337
-1.04205879340413
-1.04023999088799
-1.05046332768213
-0.950235975919032
-0.968610942550387
-1.00673136483235
-1.02854364575387
-1.00746945910861
-0.95701682780477
-0.977771556181453
-0.990370655721414
-0.967764815903468
-1.1491424601103
-1.17284870414667
-1.29371703463751
-0.865613964817558
-1.28629844632003
-1.44262807238549
-1.21511644916244
-1.34010414304165
-1.20246358471191
-1.14594049194017
-1.23141194781899
-1.3355319392567
-1.36748566118426
-1.22112778725894
-1.32044973062165
-1.33739819273384
-1.18819897322398
-1.22336658545663
-0.984317997928321
-1.06410479827362
-1.10809448228628
-1.20559728452839
-1.02815206423088
-1.18064221212709
-1.06418904152216
-1.12095696681718
-1.14968539157879
-1.11398922270107
-1.18888813226939
-1.17074732383373
-1.21913932883246
-0.893350790950319
-1.20703362581325
-1.18652122540062
-1.2092509107258
-1.11857915642706
-1.20472838382973
-1.31833874735406
-1.12882864164692
-1.25646893119499
-1.30525090025227
-1.09855087153945
-1.2209592855887
-1.16506375798692
-1.33765506437834
-1.3114712263309
-1.41158448466793
-1.36836321005921
-1.28054078044048
-1.43497952624948
-1.22532282576828
-1.30375088382221
-1.18522048718603
-0.976377890880876
-1.05743881507745
-1.22078210951842
-0.772956526746464
-1.35432833985611
-1.3429277635735
-1.44588747530964
-1.43211549027466
-1.39965310551019
-1.44729262120822
-1.43069091016447
-0.971033956359446
-1.36487853950784
-1.25392588684341
-1.12335203957751
-1.12956071918976
-1.1321527789063
-1.11801783585463
-1.3113519125815
-1.15744315031709
-0.981684725351505
-1.07805233398072
-1.05636047610908
-1.17004104478121
-1.10131064886643
-1.27895168089846
-1.4317136790969
-1.42912819384151
-1.39516528221434
-1.3887222846903
-1.43291597851215
-1.37555349183503
-1.39142603190776
-1.37892054204627
-1.20144379125514
-1.14992891237149
-1.14618978846841
-1.15600981295234
-0.998836398493031
-1.00291997548631
-1.18515782345841
-1.25830302086647
-1.05057015812852
-1.02403165131961
-1.09310752132988
-1.19871199447664
-1.01082925755056
-1.07242536019289
-0.980316887923543
-1.09082682669892
-1.15681480633034
-1.05163988356111
-1.09055702490528
-1.13616505370548
-1.01704702206332
-1.04033858136182
-1.19213345053337
-1.15543299648987
-1.11594129569158
-1.05679081684352
-1.18896636746337
-1.15022486691562
-1.15631481293467
-0.930180875807528
-1.02603827442968
-1.20167167629493
-1.2354459267854
-1.21036740961201
-1.14608280621745
-1.26037553508232
-1.19302287683772
-1.16288728208972
-1.41719185799166
-1.39874440728079
-1.41441591714577
-1.45032850374024
-0.997692741410991
-0.977489069914916
-0.979475202249143
-1.0317812933226
-1.06002610100737
-0.996459128214377
-1.00170005717989
-1.14767208146762
-1.18404540851536
-1.15681383589525
-1.09231650086465
-1.03883432311876
-1.41965185978462
-1.42837630344931
-1.38693773115488
-1.15175770055525
-1.21696176921878
-1.33445362963717
-1.35059658008362
-1.36247996945991
-1.39378702597265
-1.25343987084975
-1.28854559650035
-1.23121204471352
-1.1497059462306
-1.2027426464596
-1.33210194811655
-1.17480618455805
-1.16568781392831
-1.30175245234019
-1.00607390243286
-1.0250835638826
-0.981615908953164
-0.974541475390236
-1.08243155676526
-1.10126641748259
-1.02614244466475
-1.03883680548332
-1.02725158105672
-1.06924408723663
-1.00458648443899
-1.0594778524193
-0.959256753786587
-0.992533987166115
-1.0547008762651
-1.08098706213968
-0.966598671920815
-0.960858666003461
-0.962883890781788
-0.988701130029807
-0.985584601309777
-1.22180114241479
-1.28198460842047
-1.26469526849567
-1.16899557506084
-1.23080035013913
-0.96658173560082
-1.17129391889537
-1.21089840299203
-1.32411771171491
-1.29143688475598
-1.18061350866825
-1.16571896856858
-1.06045094297007
-1.29864463241568
-1.42011390388121
-1.37793493713221
-1.35253141507633
-1.07469767972389
-1.24658999741922
-1.19610660056159
-1.32903018697893
-1.16791240066755
-1.08474066031164
-1.01236983149418
-1.01561015820738
-0.99637969445608
-1.07471903199638
-1.31012192774441
-1.14922333624462
-1.116555099197
-0.909127808731425
-1.13239464452094
-0.937482623000978
-1.23646802097393
-0.845708441173531
-1.26539348958904
-1.22738862436569
-1.44709747884415
-1.26083418458885
-1.37235057992977
-1.21374498268587
-1.17831023626312
-1.25717222919601
-1.01326027655663
-1.22019082752195
-1.15776590555992
-1.09013871401458
-1.26110484679062
-1.08922800034584
-1.40456057904763
-1.019880096183
-1.15908876393259
-1.12307613418621
-1.32809174803355
-1.37862202385853
-1.37079122206336
-1.3827359504585
-1.41516290430735
-1.34740412984212
-0.977657493942954
-1.23298444076309
-1.12153649943222
-1.17188451048285
-1.22007887678105
-1.12356426319719
-1.03770079303934
-1.16242935521521
-1.06130687744388
-1.38893840015313
-1.22446392431029
-1.21254112827197
-1.43049181490751
-1.3893060260156
-1.39054305625051
-1.24901620307558
-1.15111518782341
-1.11439362258644
-1.20028610481247
-1.09321658153778
-1.17231599220247
-1.09977067322121
-1.19879768446797
-1.13085859127566
-1.08831453988479
-1.03948834328924
-1.1637414569321
-1.0499081821884
-1.09537710297032
-1.24985385340054
-1.21038455389855
-1.00419555471788
-1.14338976056898
-1.09714546548712
-1.44303680705937
-1.46635443886743
-1.30316834771842
-1.44090411464637
-1.42808919553198
-1.44302961227337
-1.32093484186181
-1.32112145449967
-1.41175527722029
-1.13769817310307
-1.13155770284034
-1.28620873035572
-1.23764346531418
-1.03906831224756
-1.06066719617314
-1.12152537376076
-0.997315979402347
-1.00504447471284
-1.19742222321843
-1.15538536425647
-1.09682338275937
-1.0789562591292
-1.05434819541108
-0.97718037803073
-1.10698991331641
-1.14889678107353
-1.10140051550085
-1.09473429161591
-1.12074781181437
-1.10668894022642
-1.02471956156479
-1.02051626674226
-1.26725477264384
-0.956263600234447
-1.1955635159928
-1.05360621259714
-1.07462800677149
-1.01811848169085
-1.23033633062085
-1.13018592850368
-1.1284645247766
-1.09800935416698
-1.05310891222989
-1.06296876607693
-0.962843797913669
-1.13903243378714
-1.15049957631435
-1.12449629434317
-1.24977170837513
-1.1273849748518
-1.31802065723981
-1.10807072523072
-1.11899113576881
-1.15338962987323
-1.14352828704209
-1.21490667437421
-1.13066407126774
-1.11207977414951
-1.36987296325609
-0.966382618051303
-1.009786675296
-1.01873830053302
-1.0710250536529
-1.01206174163522
-1.07676244792864
-1.09791016291798
-0.968376522783136
-1.00601805279762
-1.10473420200112
-1.12112458297336
-1.1980870614784
-1.17653593060068
-1.12580899866682
-1.04067740815081
-1.42827034825137
-1.41892555091565
-1.45463364379494
-1.42309726502892
-1.16854446101754
-1.22973313938099
-1.40613816423476
-1.28804270828437
-1.33593786238765
-1.39506478086453
-1.36393376493014
-1.27899801147775
-1.30779958591883
-1.3787633195685
-1.28120507407338
-1.15507914612271
-1.20176208758341
-1.31944278273012
-1.22478791892118
-1.32003372705851
-1.02191544180866
-1.04228403423009
-1.0031860116251
-1.04058489712677
-0.955350962065585
-0.979322443141299
-0.985570162332795
-1.04382147951661
-1.09149752836902
-1.04173605755917
-1.08545191615487
-1.03927988112102
-0.981946226103288
-0.988464671763456
-0.999834520536
-0.986459135206177
-1.09976510916395
-1.06073419904433
-1.0114520619762
-0.997576204506771
-0.999814446504011
-0.970035050906686
-0.973662997743481
-0.959555281288303
-0.97235842716136
-0.967787355084427
-1.12181623136601
-1.09476742510104
-1.3012028519594
-0.898779681805542
-1.19681733668103
-1.25914704617249
-1.01497185992215
-1.25807992790196
-1.32082763687571
-1.27049831951987
-1.25702911477344
-1.30012434221844
-1.40210661065389
-1.20887894378596
-1.29367026828578
-1.08035938828475
-1.42244214379375
-1.40422035212741
-1.35700112499932
-1.32178239465934
-1.37657420188941
-1.04227160675679
-1.13737480649695
-0.877709548815239
-1.31687100893776
-1.29821435324973
-1.22961386561553
-1.08533612542044
-1.09516791216402
-1.06514771082912
-1.29046128383845
-1.02259264502908
-0.972797980518164
-1.07695174285554
-0.996616755171059
-1.12564052549089
-1.06602281460903
-1.04887533323018
-1.10425725488942
-0.953119466513247
-1.13817469757209
-0.991822809365852
-1.1155495860056
-1.18108533590629
-1.15630880234153
-1.11656386716201
-1.27779744038523
-1.22830135043595
-1.13117319118192
-1.23693196459726
-1.35017308845418
-1.17112146564675
-1.20658747262676
-1.31135829133132
-1.20696533899055
-1.20323648921459
-1.16828952403723
-1.51952479057361
-1.23114992634201
-1.24067402682119
-1.16964264515627
-1.31959045635279
-1.31740624565348
-1.30332640180853
-1.31556015886395
-1.27686722411981
-1.25254713350984
-1.25757243040583
-1.37107104777162
-1.21788854524037
-1.40902086335917
-1.47055105520189
-1.38127300949869
-1.19052627205918
-1.0335988732789
-1.05592868539365
-1.2620767668001
-1.10959750546782
-1.2122104860435
-1.09312533578034
-1.08283981817937
-1.15361763160265
-1.30116501724912
-0.794833627872554
-1.14843366899521
-1.09391289540273
-1.45777440228111
-1.40124286467619
-0.982157712085239
-1.06375036644454
-1.3126769741408
-1.11914195118491
-1.21631670565228
-1.33461261406782
-0.905611395730885
-1.1580131749254
-1.20446156705301
-1.08876879180906
-1.30944201523285
-1.1783794798086
-1.20079731937577
-1.05818164563293
-0.9311771527243
-1.13508183568524
-1.30404078227536
-0.985710123139932
-1.26477855252203
-1.34344881644943
-1.46851621955885
-1.4794685586584
-1.44204453481865
-1.36366876037744
-1.41796841292465
-1.41610511786008
-1.4577550686766
-1.17220316709886
-1.06610935055228
-1.16614770106834
-1.21748617878097
-1.1739389552027
-1.4128836562652
-1.05691704185614
-1.12953353495352
-1.05969382254679
-1.02381050074855
-1.08164848297817
-1.03178677563405
-1.07466137321199
-1.10845301341443
-1.02134305789259
-1.12009016725878
-1.10285719478734
-1.07030684311952
-0.883467935644088
-1.08992961211011
-0.933890702994318
-1.07784981240821
-1.00834148082414
-1.18392496783792
-1.19595626454015
-1.02972519262703
-1.0584003697709
-1.10053259130858
-1.03314996864561
-1.12597762433457
-1.0529444139675
-0.970585026469365
-1.01171463982371
-1.15918376191337
-1.14216678555592
-1.23395922390239
-1.02265716527759
-1.2567881520871
-1.18067259656357
-1.12504723973744
-1.12103814994982
-1.2652513456045
-1.1361990198204
-1.30067848610887
-1.18197278860059
-1.30530772299407
-1.11785136085967
-1.38918890060695
-1.08847844030493
-1.22737212566908
-1.20780215987037
-1.04970080324973
-1.15742189494963
-1.36987867378409
-0.964327055119622
-0.984297282071588
-0.981580918771662
-1.0178645752979
-1.00728079805716
-0.983726915974555
-1.07072504326717
-0.995511467981008
-1.03684008762938
-1.00912887186078
-1.03871510336697
-1.14702996783559
-0.928944572877659
-1.10657718882169
-1.1448032525417
-1.06090852460737
-1.40090636806241
-1.24333707478725
-1.27844107101525
-1.39486219001554
-1.30420128444137
-1.32494582899058
-1.2937881439536
-1.24798577333115
-1.42114692696889
-1.25471150546502
-1.27142021612884
-1.16042537595767
-1.23007419219453
-1.19780150184859
-1.17746684003399
-1.41771216107833
-1.32190634552959
-1.14770653016841
-1.38408329771977
-1.16784577696285
-1.07931625080781
-1.23114265821226
-1.03327956123889
-1.02087872483789
-0.971925988017083
-1.02317952542298
-1.03508743259818
-0.951825740828164
-0.975119378145404
-1.0641346767174
-0.938357090007373
-1.06155050972606
-1.03323693237113
-1.00509885252618
-0.97676202361882
-0.983429662149736
-0.99159735226641
-0.973001808656238
-1.01911126610997
-1.06522144134291
-0.973209684300093
-0.976914841422404
-0.961986415057775
-0.977783531227269
-0.985872254353776
-1.09729347722073
-1.04196557869157
-0.633387468228936
-1.25981091625302
-1.08853722533298
-0.773195470711626
-1.17155510365802
-1.14014639892758
-1.15543363003403