/*--------------------------------*- C++ -*----------------------------------*\
| =========                 |                                                 |
| \\      /  F ield         | OpenFOAM: The Open Source CFD Toolbox           |
|  \\    /   O peration     | Version:  2312                                  |
|   \\  /    A nd           | Website:  www.openfoam.com                      |
|    \\/     M anipulation  |                                                 |
\*---------------------------------------------------------------------------*/
FoamFile
{
    version     2.0;
    format      ascii;
    arch        "LSB;label=32;scalar=64";
    class       volScalarField;
    location    "2000";
    object      epsilon;
}
// * * * * * * * * * * * * * * * * * * * * * * * * * * * * * * * * * * * * * //

dimensions      [0 2 -3 0 0 0 0];

internalField   nonuniform List<scalar> 
109577
(
2992.87398334413
5893.62191221022
6950.47534530923
4738.70217483892
2877.11788260999
4673.53265173919
9946.58523978672
4408.72186990151
6414.64556093356
3601.18481512151
12400.8008199253
3959.32512906015
9433.77472976449
7183.41148907712
10038.4031702462
8950.76396616815
3923.88437907088
51699.0079455265
10647.5653072098
10775.859831983
6326.54785950717
12794.2863672805
7286.0583572808
4410.9752882442
4963.43043587365
9453.21919980522
11779.5467323863
27796.9745432819
8437.54143637855
5368.06717140757
7198.6917380296
5784.8665848158
6035.65278931156
25068.7169935511
1004.79727025845
4536.40927042186
7210.62603202396
39495.1002015558
7661.9271328454
34153.6745032287
7872.25197470449
37733.6168439991
12778.7334818059
6053.9450154581
4832.59755535211
5808.13520236003
11840.4283857252
8523.91628636072
4856.88013671915
9421.3021218892
12244.6514076432
3844.54391945971
4324.44199224835
7548.72213904614
6333.82555368847
12474.1535058504
12494.1743080276
7616.1152135199
11984.1110865113
8053.71099757122
6246.06769003218
14038.4911159212
9168.60791577716
5484.14221370693
5632.99240119471
4698.20449259846
4499.4622851986
5338.41051145892
5417.40404160022
12932.1289686999
14084.8046659995
4766.99885066173
5155.89522861055
34390.7708496312
4575.52460722554
3680.79070950703
4467.98868169733
5647.67184701299
5707.41655094157
5573.39733925042
26750.8261091479
7363.96676843265
24885.5165658016
8327.89740332171
8681.37895263607
6078.97774052608
9906.2996549815
12498.8423569707
6026.59978467363
5684.35254167708
24337.5307139508
9580.15231056154
10482.2565011888
6514.79504597751
5630.04002854424
5500.45733456097
4501.87042115005
4608.96503641943
5227.75253691512
6110.17055207823
11086.6154084741
5998.0716209382
4600.39026217735
7345.24566669015
16254.6703956661
1014.13708957582
4145.33212433514
6113.73141819496
5927.79497231676
5463.20504587635
5227.48495023633
5668.15069090997
5247.59613599238
17741.2609109688
6855.21258702805
8159.14721969212
17835.5019234197
11344.2894613953
6337.98045669567
6366.02429288346
5609.70720534549
10256.7208121321
6777.35062727066
31650.3643102992
5938.56358434614
5624.0703004349
5329.47156565558
31211.7765152524
27401.6144625374
7318.95593219997
11188.782281343
9141.04518184314
14467.6876533988
6539.33897325727
5956.6048570419
6068.49710849043
5580.7182188178
5167.67920299535
4622.49807107194
5540.46767804907
5917.71676231598
15280.4173829236
5133.53727718876
4628.60155760042
3847.37960974615
6797.55335385958
30443.6546413134
13465.4659765303
8281.50456010758
4445.91588690634
6081.70427801347
5914.09332372721
5569.47931009174
5155.871692456
5474.24643535158
5590.22668624351
5317.12032710317
21974.3587566617
5929.47846183416
7124.37396826444
6660.36989958685
9033.08409401151
6731.25352374429
22231.6329055281
6687.35068714004
5574.85873849805
5645.77645027621
5443.35013837582
13051.8369976971
7157.90844677186
6132.24340576756
6205.27336777716
5735.93013613896
5595.27920160603
5351.52181879674
17766.5252484478
17224.2712204619
30967.1602609481
9840.98773224906
7685.62756238972
9301.16122882748
6256.94238496701
47828.7682993042
10984.5096145067
6263.34225351067
5766.10898216372
6014.11229031788
5227.57005869067
5651.89798143555
5098.09770927991
5035.34769163613
5404.40806795746
8104.59257839813
5502.65392732764
7145.30327371044
5245.65358864621
4917.46591461584
4661.62267188172
4028.46002430435
6646.27145391626
14691.8615368832
5411.26734109384
4161.65186076351
5701.77864061947
5536.43365043415
5414.34321431956
5206.58987891348
5378.62292795714
5370.93478415452
5305.60862933454
5255.80552454125
5381.50391535712
9281.98730886211
6914.86705064604
26235.1002186676
5619.28734109848
4848.91304926922
7124.77343486407
5236.86527181749
5118.27081931655
5510.1776480081
5463.04430673877
5338.16246079568
5503.22240610795
8298.90661730099
6109.28348461526
6331.79724890667
5734.66370586229
6080.4060820612
5825.38295915265
5592.81833326623
5557.62620337335
5465.9601065735
5318.02412988332
52444.053847108
9700.40337459403
10201.2121512799
6681.13252425284
7985.50889160767
6636.6323376441
7363.10967399558
10909.6408241458
7571.36272142656
6100.52924435641
20240.8933419285
15418.3843962955
7264.48694930322
5939.22283601007
6241.87726058239
5544.53762562774
6095.50988215652
5844.56585199718
5061.62864882767
5338.76669253442
5236.63085579928
4959.1234840241
4985.41023950471
5367.65768240201
8792.86804928668
6190.26978712045
6220.66433210055
4894.24268768143
4753.23500636506
4566.04490003753
12239.579021599
8086.04743119724
34619.6652490861
9913.3641685284
4606.67950287417
8189.47622642218
5020.73631673038
5552.24023623376
5534.33527451293
5338.22230859188
5164.97988780558
5286.33708472675
5359.38405970485
5401.88175052058
5371.51088020615
5274.40391718374
5366.16118463992
5075.52663584538
5754.21323979587
4775.07544953328
5059.03904156364
8751.48216043841
11377.0026219593
5118.55254875468
5083.55966122932
6220.7396808173
8560.30421129749
4519.34415780621
4847.52355247543
4712.04505063195
4681.91978700674
4700.50374165171
4904.99162485333
4662.93001139401
5123.9218306979
5079.16763665445
5268.48207012832
5403.27470306091
5388.58268235679
5688.51849992536
5541.05917645294
6645.35980308789
5726.05325597696
5772.19504512889
5717.66540201194
5485.16851584533
5533.76721526559
5541.30075701664
11399.6400757008
20652.0546039813
6507.09791720346
5745.72784402153
6880.13638459665
5998.12488677018
6535.16841391262
6774.55196046092
16564.6519450334
8401.43261999153
6463.16926536795
7145.53096749611
5720.87722666766
46016.7558220633
46669.3953454438
11682.5689337653
7005.30909083
6017.06582260511
5804.90683102783
5689.61930784451
5905.74817173954
6429.88335845055
5885.70728933863
5236.2507562078
5375.58856346481
5342.24025681042
5213.11049827908
4984.54266798765
4978.21046884694
5877.81695732379
6451.78004802102
7708.63051104913
4771.36689870452
4899.37033311179
6410.04002492858
4741.3843593995
21891.0608105644
951.433596149686
6855.03315914711
4621.31058512879
5648.41730110548
5744.01267690044
5241.97233393168
5424.37593129572
5521.50818479952
5422.13511650766
5393.46626754183
5205.92858161145
5321.81952247859
5330.7694959077
5504.19309986264
5319.90592731063
5519.45920056569
4709.94370047505
5645.0635529025
4380.51511890197
4373.3499110974
4044.34978229314
22691.6693975985
16829.072877017
6586.23302921758
9903.67326494516
4324.40411706825
5451.3535052669
4871.87188164962
4906.25194974054
5705.14566403787
5750.6457845012
2935.1603522526
3885.84079362049
8740.74230852534
3508.35890152078
9286.8897293325
4136.52233931844
4430.34746711675
8040.4383831434
4668.91379719787
4653.51407599738
4485.64665821955
4891.04225227325
5206.59240379541
5265.40230972734
5080.20066308576
4940.28398081558
5207.29624189809
5292.84765367293
5232.47066136156
5647.92476030745
5475.01103240432
5175.48491201146
5840.71168139023
5716.83470853123
5779.78652194483
5788.94169912889
5586.67683858958
5557.8327722452
5594.94308904761
5573.4227344915
5654.36048487285
7508.63755935094
9063.65732935922
14077.6882219806
5439.11949888874
5228.47248932088
5577.39392922127
6335.57551514875
6416.35555933736
5862.28809263506
6822.44610305917
13584.3791920426
10333.4526007344
6138.77269484073
7913.07897972269
5340.70272747715
20494.1798949454
7366.77563887362
13189.4600111209
6979.22203775018
6046.13294530755
5922.58319029913
5676.58908016802
5555.71879427571
5538.7348437965
6125.77120306055
6432.01129223538
5998.61935251158
5231.6688104187
5263.83224127748
5468.06597405138
5431.86365449858
5502.4010702047
5397.22670399365
4682.92508520924
5059.70278862357
6186.56483880044
6427.52612526105
4587.00354671808
4959.39103402132
5422.29410843789
6659.73897944214
8257.07268867779
19543.5635563726
1941.7854681349
10565.0247581822
4710.87788990026
5365.00085367358
7060.73546132054
5986.32318466848
6103.34403874231
5340.22114513528
5785.99066120326
5744.60106808156
5599.37793773347
5423.14742340568
5625.0046958247
5480.63076281604
5783.48628611992
5396.09765822762
5658.95664539535
4602.21971155946
5780.13868723055
4278.39160036318
3935.08312210498
4245.54282690641
3830.7612330363
3667.15715863027
9593.31785492201
6934.10787528135
6347.65869322036
3975.63223129441
3124.07221026108
5640.82240093666
4912.64088163166
4603.16115429991
8044.05210556218
6020.73989272188
13584.95912557
5235.90531657527
663.033596668233
4242.35906645567
8609.48796968975
6397.04863529468
5052.83304116546
6203.29015442868
3639.80009606487
4326.34468042042
3225.21787000562
4600.98917376516
4402.5693122358
4562.15514828153
4371.02328185559
4948.78151751674
4986.0525382858
5006.94255885095
4956.57289806323
5051.25624689617
4764.40663813373
5189.33561441247
5466.23709739663
5137.78330156879
5665.85334154185
5592.85315463632
5530.41213231919
5366.47379496661
5216.01963969586
5463.19272377082
5754.21769909847
5865.12524329961
5886.2571301882
5803.82119671907
5757.64413507684
5656.98859871125
5649.47449502049
5698.08869016767
5807.06159604288
5793.36762653496
6603.77665709653
7510.10030640531
40846.2559949057
5315.21540488025
5239.75263537728
5072.91015115312
5151.83325700303
5473.7064290096
15850.2648475884
5923.0476557097
6045.02637894695
6493.07965685589
5899.98539981473
5614.33199191188
5684.49327514661
6251.16593200461
17752.3113073442
17989.5663119504
13628.2161619064
6056.53278912686
7288.37567650947
7697.89777088389
5384.56256938155
5299.52834845564
59742.2015108299
7204.59103164742
18303.896492791
11060.7258395967
6377.71283413781
5967.05355850318
5918.81192904406
5992.59791775959
5725.56686562729
5666.53377371861
5586.96715604785
6171.75197933169
5847.83267430846
6462.40677057603
6893.68006589098
5978.27457184499
5364.97500803312
5243.22146470087
5185.38867826357
5505.29106100992
5641.61715511624
5546.95395862463
5752.4868358083
5671.38068276604
4558.49116045586
4996.46780358826
7719.73649393772
6285.16108169441
7612.55914918979
4756.11533516197
16163.8909123207
6944.38148140203
4964.99089384278
53215.9262486055
4852.67996850437
23432.4913641808
9456.08389239874
4749.57127297194
5460.96487641004
6870.25211248036
6471.87179868682
5939.56023940541
6646.80947157179
5953.28286191396
5044.0123214602
6300.47375247374
5997.67415399328
5896.93369932852
5673.85675702228
5744.40676646272
5779.21190175499
5577.39033678616
5798.65725838037
5908.05455241148
5854.2746067095
5465.04254019487
5625.86121319128
4434.10911624755
5667.65631304784
4583.29164131584
3938.55604411255
3929.91370489605
3760.03570114886
3306.31607748575
3511.52864983619
3221.48144933461
20933.3153000217
10809.4140806457
5791.26298705274
2456.14343529069
4886.55420144333
3453.01492472778
2183.48713260117
7073.65895725565
6640.62344341586
5708.67030571904
4559.99514824726
5081.25702497485
9288.05325177556
8496.70703465362
12147.2187642758
5023.43501209996
985.52287411059
997.747381394541
9305.69868580771
5004.61717724648
6589.95994407476
4340.76701679791
4068.77788158229
2936.31480937276
4386.2157448965
4205.09114966803
4287.71654262675
4046.26446488204
5242.85364102263
5218.52733959734
5271.48076907353
4812.62905006823
4817.81332284112
4552.59943570216
5318.85089071618
5621.12910988834
5800.64734554569
4913.50668503959
5634.61403963946
5447.37060574501
5561.19309701078
5240.86867657341
5369.44341644945
4986.39733087301
5398.73183998776
5869.2564456266
5862.1576876989
5963.33841876619
5934.40764790694
5954.03846820807
5833.83543607612
5867.11049795738
5813.08161653568
5830.63071178262
6032.8872430542
5995.21618711194
5777.96290494229
5914.84060714933
6281.36312938876
11923.7474731841
5596.84356687403
5399.10488354591
4953.64674957018
4940.83752557969
5151.93854171108
5437.76227743759
5054.71351637235
5650.25614648564
11561.9904213043
5800.49391445325
5734.79277547209
14923.7866002054
5691.38391905205
5709.71400847058
5718.86621524842
5665.52788381554
6046.92592933905
6486.23256578343
47441.9797515443
15960.3777121257
10718.9659622049
5641.22819327349
6791.30342317112
7958.27285515079
6845.78732168742
5435.47617044541
4987.78704225694
5388.72966906227
12474.3506994189
10369.357195411
6100.31716401413
5988.78237456352
5858.43330729325
5948.31192499659
6165.06981412637
5789.59642362754
5789.71263900934
5642.97959427272
6582.67650648718
6048.90443242018
5897.97521081146
5893.13131449744
6206.42864226808
7153.90594989384
6034.20518274492
5514.43380272014
5522.93810581305
5089.01878021994
5431.20657890227
5619.63975641051
5756.93480597803
5743.69341647481
5872.08881277418
5799.41401105148
4754.03642519937
4855.40970410487
5526.62823350461
4982.25537448397
7416.18896697228
11246.6205364644
4914.6046831926
4855.87565956182
5007.68640866014
5618.89394006359
562.9358697672
20937.9357688917
10324.4716683949
7415.30845767531
4727.09874105695
5099.98124195746
5795.85282606343
6420.52195306949
4936.76474841272
8506.45324983071
11199.9332052131
6463.54366809385
5749.49485079753
5204.35103631068
5220.10907127287
6334.71943141547
6048.64531042019
6312.50220038007
6007.14527108991
6017.72864374208
6127.3838452104
6000.29862916606
5483.88501851324
6015.14462029518
6008.3793255902
5928.29091857174
5804.91894732149
4974.69633977452
4060.06161857522
5176.57123924813
5997.90569731072
3952.60016552865
3597.70730160009
3164.51292677079
3658.40615570993
3419.75747014536
3517.42121540254
3231.88558760298
2763.30502297069
2675.30313050434
3189.5140618791
6546.10258129487
6525.84225916753
3644.85287005334
5261.43900565877
6299.70525138603
4097.61281014947
2265.9857991071
1699.99880798806
8493.72915609031
2895.11808353784
13679.5417843509
13596.3866503858
15073.3872850872
5844.33576370111
6446.79426406856
4522.48637971884
4428.95932008855
5835.47120674333
4912.74067147082
10065.1772217798
14725.9340977132
1486.77940261888
10943.2441701452
5486.63685906093
1337.17734816714
4639.85586863347
4009.46461802
857.867670737124
4210.55139253574
4290.92421916987
4023.39254260224
4067.10096925381
4588.62547691659
5428.20098858781
5126.98798518777
5357.64020754967
5346.7676943544
5402.61489809945
4935.56139104146
5271.82240422627
4601.82832152971
4608.42768477316
4505.46860688838
4596.44347735221
5543.44862216452
5836.77511368614
5844.53953556932
5949.003537205
4812.50796435246
5038.10183792494
5770.43538013679
5344.73135260461
5665.34864444323
5226.74888518517
5392.68117432637
4962.75486209052
5984.49688874962
5923.41546580939
6054.0361453077
6311.33114731999
6087.22767938488
6037.9315782021
6170.1220985925
5996.66158569501
6112.05662231002
6239.41620756114
6146.25169224496
6157.31855790101
6045.77946116833
5632.36702495061
6107.46879868728
6832.82436516958
9073.13124137725
6528.31948212799
6802.2159639806
5217.43632943657
5715.6538909927
5228.53464128064
5044.74551661094
5267.26785635424
1723.21365246331
10467.3868829287
5169.4420072449
4647.50349899748
6531.73643880095
6431.82457228192
5594.83900313414
10279.3545473559
5514.53712051678
5823.48669989931
5615.77506307485
5547.58111439295
6015.3495737826
6560.43272747246
6014.03784823494
17171.7060206625
14893.329340867
11527.1775647176
11119.3264191652
5852.44385461975
6864.12566466705
7905.15800212491
5371.1908615308
5077.71663257374
5313.49215479285
5730.77190145373
36559.1490010229
10605.4761137537
6227.37544084108
6086.72455609965
6076.26331645224
5985.94446726675
6373.46374328486
6084.7552442444
6192.3006328191
5857.34579682592
5609.4374998125
5486.52765257413
5839.99108093295
6447.9767492994
6102.18335259665
5948.6721977288
5942.78732625864
6639.27257632957
6096.73021615579
5439.14207759882
5799.26104890782
4947.65652501492
5101.71840936269
5227.65756465412
5471.94706935112
5809.55305145721
5878.40174975499
6028.77528033414
6037.31793393415
5906.80563110878
6124.07798768707
4657.90006491242
4841.45281831484
4764.82003348184
5501.31791033746
4868.78698931412
6125.1690648849
9584.44006645092
7170.86960938605
1792.68873333379
11330.6482972253
17054.5855204578
7276.23725511315
4872.71233993918
5493.61123998299
5079.20071878683
5180.39398432953
7513.20347961155
5868.64698796533
6218.22074484892
11161.2916821924
13782.2374369304
16209.6209521376
7138.42040917198
6748.04742845469
5522.33458440786
6631.63899534656
6326.12562988604
6285.27613081673
6678.42690455466
6273.27814994109
6255.28800911174
6452.43831622008
6263.78250380468
6083.56597487271
6442.8236785906
6354.54591155611
5844.90581449242
4795.04546529348
3668.32476043939
4173.10382273905
5495.6860686997
3697.54219146975
3672.29078105814
3095.23298574182
3705.00514958412
3317.61998438649
3912.13737674809
3607.28565709618
3160.86927987008
2261.48073623849
2587.63881972471
2580.02823790675
3075.39399471941
2607.34483214932
11229.2938784209
6798.39838714483
3009.53354453468
2146.36438946431
3215.52128471028
23227.3303245309
4677.50783366482
1413.221254424
2030.01241876154
5399.63784470198
4216.66079722868
5246.14264219654
4322.21667806953
10705.3010311265
16089.5163437778
11669.5072423821
6697.45128822303
4521.24914753191
6681.98186216759
7811.25824868466
4593.64597348621
7014.23163759764
6294.50714638778
4722.70134323223
5181.26189699856
12523.3027576816
5305.47445865974
4937.03183774258
3836.46886001331
4345.88916400671
3922.36425729637
4146.80299617493
4165.39990331318
4445.27791596918
4564.63540989911
5675.34406991018
5411.31266061377
5252.92919048714
5182.80545113755
4818.69599722435
5390.68012376908
5665.60770602675
5331.19323639085
4868.72452078823
5151.94512753351
4641.79911397211
4511.4832437381
4468.49384605644
5686.845574967
6042.07681536831
6258.1393161628
6370.59110881974
4820.1928865535
5046.73524088502
5978.77341325819
5294.7891183369
5678.77191495335
5396.54219147037
5545.42997521858
4758.76360337139
4985.58734385321
6167.4655785378
5989.46727050962
6072.0698033555
6051.6506359014
6189.87190800878
6423.33069247055
6332.79753568234
6451.47788043466
6444.7437788722
6178.12823031375
6573.41889524196
6521.61567662459
6459.38351217813
6262.15511141921
5783.3315896272
6595.14059316095
12307.6400983677
5977.15368390698
8022.97665205092
13092.669796118
7214.66578138688
5378.74914276234
6407.51506601099
6541.17129315385
5139.02367101435
4895.19663440801
5051.43620129485
5097.35924046881
5308.76043282393
2678.61322158962
1044.20322357593
10217.5407660321
12874.569443911
11239.2091597308
7402.8632048667
7919.5396609328
11867.6426209672
5534.52661781558
5594.98746804485
5724.8994309238
5532.63177297462
5428.01696932029
6315.2563263153
7122.68345753958
6056.38801005418
6526.26524670201
41472.5192881664
11631.2352911097
44714.9128936979
15272.6139644807
7845.24531149076
15398.0655777467
5896.26041715358
7150.45187392834
6759.28733816265
7366.75343181763
5187.09395472732
4963.4964869379
5109.51996772975
5452.50075691809
5724.22680948683
15900.8850938756
12836.5476566389
7166.81637718414
6187.80435668364
6131.56339277581
6143.73872147255
6155.15649968128
6021.34683536802
6079.04648221913
6435.46715673357
6454.11623093415
6460.48915041516
6143.2897343121
6060.36366325913
5828.19702151665
5593.28744795463
5686.07848783228
5608.36369560424
5852.06551279099
5969.80850302332
6243.51580205911
6520.02808146279
6577.78144314982
6134.18902864045
6160.34732075959
6230.4974054603
5796.79453987603
6119.89090800149
5902.81818503232
7231.67077891445
5732.3569640625
5211.43126322589
5997.84133022857
5281.3051638359
5579.91613613999
5994.28859992082
6124.87543947274
6187.12913926006
6156.41504245537
6491.67223260013
4658.58370265918
4700.05976820667
4812.41189390375
5721.80167013928
5099.48626406795
6543.46203626375
10608.6923547338
15366.556967784
6837.28123065105
26273.4208537377
12781.2631317718
12183.4262992948
5519.35294563536
5868.86238336364
5031.96132773905
5661.80219615913
8098.00634158716
6048.82676816399
1289.77744029157
31243.7521607991
26731.2500225899
30726.5262608954
9232.92624929648
6268.40584965098
8626.19324084941
5219.82884049818
7203.59583590953
6752.03834334373
6632.56033164104
6739.3908403571
7160.10633042334
6680.62137367516
6675.31534175195
6454.13484545286
6737.00156904909
6875.89328714169
6706.72558533875
6475.25923687905
5084.74873083452
4838.94940014986
3763.11518581194
4735.83706970062
9837.57292176064
3382.4388258371
3906.429628253
3261.74082508414
2503.8433796867
3596.60626389257
3221.72213958197
8913.02906860018
4099.51465104311
2973.50410412089
2662.93105199236
2397.08501830857
2817.94237470914
4704.87537798308
2354.82395783777
2819.19845232445
5455.08618013715
27007.7727707789
6647.87766965511
2859.46089993219
3818.60693102123
1028.92005801113
4337.53829599173
10142.7037703775
432.041665227115
2977.34903888193
663.986052109657
6533.33761103212
6177.53469658014
15587.9710891681
5558.17188943947
4330.51631328484
4574.52994858517
4970.33747336552
9218.21426983006
22496.0510203661
4623.19459924197
17338.2005729537
8143.52234976416
4705.10942734014
4890.58055753272
5463.23349976303
8420.09058621878
5921.84770220771
3653.13161666757
4052.87910158866
3660.88031357531
3999.15881262002
3979.47549968378
4210.94395565949
4874.45654198735
4173.84677616812
6122.98643730341
6072.32794659407
5370.92810763814
4918.60356925419
5527.87590613368
6177.20199989081
6329.16646284274
5474.72686455205
5079.0384922109
4677.65795299532
4194.50705173342
4180.56959204796
4769.59422309533
5694.86605050131
6057.0625687818
6354.85216611195
6608.51764096272
6766.19058886989
4930.89703347725
5016.07926903104
6193.10222363703
5496.35701366483
5336.90716667747
5634.65286009563
5833.68763245097
4783.83614958787
5207.27636537393
6509.82686039022
6319.43245019447
6274.37976100269
6361.97811226214
6636.57159449825
6585.43712902343
6449.55433162752
6489.04032307839
6640.84296775473
6551.75379002212
6668.38980179629
6370.48136183158
6899.27358685447
6839.23848832457
6739.17393640789
6501.75666279514
6113.87956683341
5388.58820903147
6265.63691328837
4908.37385788888
6178.09450898204
6686.02959938342
7498.27046932496
14177.5044555465
5276.68058761758
7865.39468390322
7916.86724861159
5199.78381096075
4953.35173007716
4848.42651029601
4978.75848370339
5208.78876493471
5364.53511855819
1527.28721286268
14296.5992455074
14289.2554598274
8964.44818802817
8758.04427135024
15899.2756965584
1158.49644701114
5331.12013591199
5761.23730985569
5712.62204157137
5786.16581483772
5611.85448962668
5496.70359807098
6098.55201338561
6806.2029738448
32626.8667254582
16548.1578859212
7972.5765049188
7168.61174189009
39605.6336550783
15317.9987678059
6387.28871317674
5044.63207648846
4966.87530141785
5345.05086145632
5575.75602842651
8641.24388840984
11289.0180908624
8188.24098832833
6402.02810208023
6052.18756369625
6197.04731958714
6104.18174377207
6307.35341333934
6151.03366465537
6181.37124379534
6386.51704282838
6121.24733170191
5877.8508151729
6022.2171061299
6118.93688824461
6576.32153056406
6745.03764621063
6725.80428993151
6238.01013258329
5704.78329224482
6078.06137891869
5936.57336394824
5702.83526493929
5630.182235014
5966.09274351587
6103.10368594211
6203.73399958307
6280.46290916728
7236.15938103886
6196.76506592111
6250.11162907838
5968.90869214713
5734.52390640073
6174.17168016943
6013.26843116192
7671.93287465606
8690.00516239671
5784.01826950827
5272.38926618179
6234.62188194882
6126.13917462475
5440.95120787497
5868.87634050536
6208.75641422614
6353.24264030016
6364.57566293996
6818.99037098361
4997.69521846419
4839.08458330228
4951.18677409028
5457.00357889726
6066.21877120249
5033.39415166117
6524.77815498269
12456.3549287369
14674.7325007965
21693.277832788
12412.6065563604
5373.31480206329
8073.91496235816
6219.81458312866
5159.91648213874
9797.85109379561
8341.62715627493
6655.76112944863
12949.6653300922
10445.9887114363
6946.72990099579
8824.11822660755
6426.73209782889
8588.78913046128
7058.84304674239
6967.72334322021
6821.83869807426
7402.97127664933
7153.41211760788
7563.89483689946
7315.23583526169
6999.62540387
7054.4639696288
6865.12303005852
7012.0851700342
7061.16016190463
6948.33702926626
6859.85263846152
5349.75629680413
5206.63715977395
3863.4703772481
3564.81268499695
6237.98675089433
3523.99832480258
2693.90406564477
1826.23171826045
3263.25179717535
3218.42099372877
8666.39749681832
3086.4143055238
2634.40988473962
2851.65269703153
5563.81119417768
2258.67640142945
6686.83749637834
4058.17260242977
2090.13810881854
2359.80294519554
2478.25262666748
2686.79454824578
2458.7955226949
1502.98479810372
831.653680160511
637.878974055127
1559.39284587582
571.381177079745
4733.72671757096
10640.8385925919
286.204405787548
13552.7412020959
5696.28621577807
11284.5934466976
12204.6065853436
6899.60590387588
4761.48471368977
4206.2995618678
4608.2271710893
4396.13781379801
5252.05256351914
8953.63865841253
15046.1478261644
4707.2004813315
6842.21236861722
4732.92630069019
5059.99339718678
11510.8907111947
4772.67903124128
3696.85168738893
3644.30282376246
3944.74924428731
3811.84387133456
3656.74725017739
3638.58188945725
3790.31291399618
4003.33867858432
3629.65117615277
3783.82185951572
4553.34552399092
4032.74819168976
5087.69362970587
4235.65205555681
6046.89613180338
6316.63985999279
6167.36966701784
6124.52026030394
5032.7102111399
5617.33669794086
5796.01870802342
6269.79629208293
6558.91201045366
6404.05498661639
5623.98788823464
5752.84606871305
5687.15302728695
4560.30689636113
4270.91911050626
4221.59559460401
4881.99667259043
5779.43042213631
6256.62728427259
6717.46501686521
7000.20494951734
7161.51444135728
6855.53907099053
4916.87098362998
5153.11146955717
6604.88810680933
5459.39136907272
5428.74278486589
5940.22243044012
4940.36333704912
5297.44582155104
5283.35368149993
6784.41171334309
6334.93762912126
6377.60008386496
6364.88896431095
6410.76927668921
6955.61589167193
6665.53288754457
6880.21164160119
6691.11854229934
6802.37808220565
6924.50716054627
6804.28511009476
6723.37048393321
7053.74501934114
7152.38818696896
6992.45439768962
7012.84717051315
6783.37476752848
6017.3842751458
5538.64191315764
6136.2813322315
5718.44620391923
8947.28455650961
5094.95579379123
7591.96234710622
6829.70825398365
7144.00030138953
10890.3736405872
5600.00275138069
5019.63226733601
18164.312038663
6699.57593035105
7969.7147490166
5396.87010127421
4926.54891155917
4836.55327775092
4974.54312351921
5215.63290620464
18752.506437557
22431.9960946184
7129.82267912478
1680.77414178915
5355.09618125242
5716.6634088044
5715.31848146349
5754.86849042008
5484.31898661396
5396.78633955917
5873.4975161108
6471.90649314844
8712.76416770238
10720.1514532742
7052.70426318328
7727.15291874852
6932.52104493932
41103.4801787421
9887.17149234127
6538.06989599266
4912.97176359678
5312.55734514822
5050.1383334778
5432.03219324792
5454.67702199908
6810.42865586595
4478.55725244492
6708.08821514611
6024.47454983999
5895.76349018632
6176.59380968931
6179.81278791657
6132.2656080238
6114.97152392697
6350.62316971894
6105.70941708
6388.14421629262
6605.46505467313
6421.64677701743
5946.65371817725
5785.43049256323
5863.41638162803
6112.7439883904
6224.22767333994
7062.96239569385
6976.99559411102
6994.29794770615
6961.68263759396
6633.06261157321
6439.95863148792
6274.9321113229
5984.74985458642
6120.99458431299
6169.77471366502
6082.24951961715
5860.9907256005
5686.8635791145
5890.57867356994
6210.28796305736
6296.04079529467
6286.22089497626
6873.84995440956
6297.05375816107
6229.24961427367
6389.69241767036
6122.11865589672
6203.39960727564
5826.22628502371
6233.68362179781
6185.78392165268
6098.70069931593
6039.83844215334
9588.14784425606
7364.20150731295
10177.2786766307
5980.03622760926
6353.80881443152
6485.78431073996
6477.97029384929
6000.38117728284
6642.42603324037
6723.16302327996
6745.90508117173
7104.29504624498
4918.11432745989
5249.76839836403
4998.88616781325
4807.98170457424
5964.54185570109
5284.48643589698
6083.92156542726
8084.75508729802
7961.95522621595
33693.5355741654
8649.67885874246
5484.33994519694
17573.1402529973
5815.54255432
5328.2644338937
3176.49069267015
29483.4088971022
5525.06024957122
21587.0859072128
11443.5895801306
11063.6253993489
8105.36031544075
5967.63146676274
9384.35687593331
8203.10813326389
7194.46394233481
7897.01800037142
8081.70236704223
7670.93811787415
7192.14279819275
6636.29268736716
8654.99960781003
7648.10535333939
7658.06379428748
7363.36237810482
6854.14876021779
7232.3126623286
4458.09817824069
3567.24523470939
5740.28858071565
3231.34685575381
3958.36924084613
1502.46017074094
1871.93647895401
1448.7170719822
1750.64014476689
3403.99527334317
2911.15590068612
7891.69911409366
4285.46520765217
3489.15605126731
3282.15289560127
2305.21612091058
2574.11249687134
3098.0065199718
2186.3766236983
2249.74839063603
1782.00246849566
2335.87404969876
2867.86890061968
2212.58381432413
2420.66792962841
786.836834347762
833.304709566559
739.4841852581
553.837489471553
187.670651135895
1793.20418728946
1421.12360530605
1639.51949136311
8195.12666534401
7116.3722101298
15823.3846493903
5312.36192563901
13028.3005436654
15425.4831180243
5789.25777214812
4302.7747551378
4608.83181453758
4454.10529240012
4374.51350038464
6319.81166208217
5031.87636023701
5332.17335596495
15755.4740724
14968.8996833372
4676.91846685356
8639.83849317375
5268.60599825842
5638.68979105685
5356.47444488185
3581.00417483313
3432.90274068373
3785.76453730015
3944.96290439952
3603.38602421274
3542.08332271977
3716.69480255787
3850.25044657125
4161.29041779813
3670.82458801613
4588.89417629848
4094.34493234912