/*--------------------------------*- C++ -*----------------------------------*\
| =========                 |                                                 |
| \\      /  F ield         | OpenFOAM: The Open Source CFD Toolbox           |
|  \\    /   O peration     | Version:  2312                                  |
|   \\  /    A nd           | Website:  www.openfoam.com                      |
|    \\/     M anipulation  |                                                 |
\*---------------------------------------------------------------------------*/
FoamFile
{
    version     2.0;
    format      ascii;
    arch        "LSB;label=32;scalar=64";
    class       volScalarField;
    location    "2000";
    object      k;
}
// * * * * * * * * * * * * * * * * * * * * * * * * * * * * * * * * * * * * * //

dimensions      [0 2 -2 0 0 0 0];

internalField   nonuniform List<scalar> 
109577
(
4.12800019189344
6.98709081804554
7.00030959572483
14.9876981260717
3.69012517301495
15.2599886696091
10.7385435174488
9.57994435736104
28.6861680534828
5.41549459892585
12.8935822723519
5.77843753797504
30.081973671933
31.5648854697826
10.7043793910574
11.3629516012298
9.82563839088405
14.390194367189
32.6188943223547
37.1664419670103
35.7150839948161
12.722495493417
23.7210763368648
5.46698129425945
16.4100034868054
40.1667140142103
37.364916007665
25.0035304847984
43.0571209921064
38.8743118361574
40.9127099712446
19.9122762853077
19.0463407663284
21.7627623579063
2.03516394749085
13.1066273240121
41.4134914703313
26.1216327705188
45.8473209852415
28.5177246727622
46.7344712757385
30.4234556873605
41.9355809855431
53.9197607581444
37.1810885597389
45.9162955533125
36.9033407133852
8.76754421207769
25.6567423886892
14.4981696809593
13.3586835928626
5.02881780350804
13.9399860135232
40.0576366031514
49.2125737421804
34.5542141522753
37.2584725950162
49.2178294363585
43.7829465864706
49.9445389686014
53.4923700183666
42.3829553774647
51.9932097496864
54.7450883561609
58.20372764865
32.6263734239775
40.8289045136957
52.810132423475
50.096617987142
39.2434525394966
12.3552137178316
27.2003503283537
18.7691987797071
24.9737948499637
4.74723612425589
9.33037506104823
18.4348407077035
49.7412180422001
52.3806676901767
54.8991625267704
20.8674109319458
41.2700596737652
22.4129887653807
40.9575525192769
46.0644193923007
56.2280920976577
48.3932459621253
40.7838991468894
62.1524680825176
60.5226685465604
20.9093782415882
51.4560157747307
48.0513917225685
62.90581795897
62.7497949976488
61.662547164274
36.887165804657
45.7259069057716
54.4555066795441
50.8163657333568
42.7367367352833
24.2172496727541
33.493189977498
9.2792417397493
36.0003073471224
1.62310594010576
15.6423257770557
26.8248064851293
47.8967155249937
53.8270025378749
58.3835924881728
57.3484990808911
59.1522422335735
13.3177817222639
42.4550302177379
36.7015409028617
17.8920139194807
31.5894254704941
49.2265257919046
52.4780391210165
62.4298603672863
43.4144180547948
61.0109260272195
26.32317566749
65.66907127004
65.6624453031449
63.4530903029407
27.7624649712223
21.498982344599
59.6441646835962
49.1993633094184
51.0830132311734
46.5143808097247
63.839532958241
64.5151532500903
66.0121076599526
65.8119506445636
65.3803091091621
44.8058678259697
58.292224614017
48.2341782039856
15.0415945369203
27.6929090173907
40.0282422540962
6.02793090611351
8.80564498698937
31.8882107290843
34.7926902912897
6.06032800337412
17.8221121186818
33.6919447381693
45.4931283319063
53.0815939421719
58.9699024718394
63.2959987634746
54.5200943549601
66.2357238859157
16.0091696915184
49.374944443605
38.2456507975231
39.5770080050086
34.6499899373672
30.154205681546
24.0549916927845
35.0697507572916
52.161521597818
56.1863695772659
64.8114139452519
37.2650234309644
49.9142888251562
61.5728391682983
65.244516686074
69.4018930520625
69.7773925793491
66.9902961697407
39.179971478491
40.0836927600939
25.0116362854654
37.8201744075523
58.6162251435658
52.4174627730195
63.5177457013221
32.0424645334232
51.8693260325774
70.0763462051528
66.9810883393093
71.6341338129961
72.0595012900038
62.3574232135093
69.739423159915
46.0759439674953
62.605108271994
38.3738595188396
56.4611482192346
23.7585245757828
28.5919963332654
41.0221122374858
37.6411718958623
6.23281237735575
8.70231652220035
39.3937293807706
7.94467792171911
15.987482962135
30.2507965552683
51.8939723903742
57.2680979985385
66.9979932122411
67.0183277704834
58.4365956457354
70.2187273891815
51.873489972754
42.9069573304297
30.7755416972403
36.919905922715
20.0270034134122
35.4812366932397
18.5624313389459
29.5475847789511
44.9922643196391
54.6698918977797
56.5101036721708
60.3736129648092
66.7093852091983
68.6801365718341
41.3410620639048
53.0869225374796
55.9653810604648
66.9067803038911
59.7815066632548
69.4758919672666
76.9936106668237
70.7358167369133
76.1038304269481
71.7111980475858
31.1683317372962
47.0438177164502
36.1271764028112
38.5345747120974
47.116067067208
66.1192130671852
57.0099022879976
48.009910706701
60.1484605900682
66.9959562915534
33.5073188565548
44.0918405450304
64.3115117677638
75.7876370017709
71.2077234013513
75.2084238455758
70.4988419620562
76.4797531039715
72.6176409536236
76.9485141616798
75.0236694730998
54.6432539350067
67.5535991393811
63.7940690290998
40.757149855275
54.4274481782049
25.7804538661648
33.8945433146979
40.0930444468736
37.9398135175968
13.1038951296299
9.89613939543981
26.4314876285541
6.55344397439148
19.5154185539431
33.8829248051269
30.4089421963469
48.8745691336235
55.135824287195
64.6714725895054
67.704317131061
71.1975712676231
63.2161754524241
70.2835545740348
68.4146700177867
56.8231992123247
72.1983595581482
48.7560645279281
41.0437116767603
40.4986418200192
32.028901564244
29.6041625243822
11.7980037386802
42.6335057777395
24.1105997664359
39.9416258442405
8.11642178792874
16.349814617245
17.8682166437291
31.1959296186184
19.8837255995692
45.014322085456
47.8695341548447
50.9091831764033
62.7771576894443
54.8084013768115
65.3773841776703
70.3070225968041
51.9417291986829
70.2383089625708
67.379389721021
57.4715792392213
61.958758786525
77.186493299245
81.3398090368835
79.8579662779767
76.1599807786074
79.4723930513562
43.6924632515526
33.6391508776226
36.158928258095
37.4926891076819
44.5438517800702
33.9596607225866
64.425761348619
66.7659195266791
40.4231355630594
56.1816226889975
65.0299991005932
64.1145466139566
66.7819223629826
15.0651582207569
29.44772061338
49.2330446641754
65.6459628067394
76.3055197233383
78.7152732814353
79.684666554749
74.908951803701
68.0066930130333
79.2937934596849
80.024839464226
79.4972026062707
80.7990006098022
77.518934919706
53.012905359327
67.9382921341608
52.8876632369279
58.5599112278762
20.0963820107783
46.1394035152587
34.8695642731295
20.9285702376889
18.7288142322223
20.0307785185524
1.54813086612176
35.2850579310916
23.7403537457876
33.253391227412
50.2207203928628
53.6016797140885
56.2956090284733
59.8611640315597
66.7253483858118
65.6732056223075
71.9470969513745
75.2553642530827
61.2783369755136
73.9261851181521
66.5888026422983
76.7595413062936
45.7981649053783
36.1313082853421
37.006801689526
31.7955965967196
27.1428638295563
23.4256202760686
15.0304173444025
30.9284630109122
10.6246846460267
21.115094409966
44.535485355774
39.4122527384548
46.835479607193
18.61477078395
23.739702000685
4.02173729947979
10.7430216175499
13.1469028620535
9.22223014745124
13.6806970035724
22.8278587430492
38.9465737083483
9.94457755173326
47.3777072493839
56.1772266257154
47.8657396123933
61.2209953185562
65.1116849064953
65.9819227363539
53.1647052966459
61.5047043773817
66.8828666004478
70.5696351884186
56.5404402848263
78.6548996125147
72.4329902158315
68.3349672780539
61.9409051753253
79.3484741544363
82.6089624354903
88.8607320466505
84.6180162090018
78.9719217990684
79.8981319957518
79.7309859774445
85.6425614683971
41.6413671107792
48.7383731471158
43.5272767162631
33.7404405856255
44.1111532638355
54.5154084479026
24.7399047734385
35.6799681209318
69.7159761966301
62.3164231576907
47.2535079562603
54.4661195342295
63.5246205446485
63.1725869170416
73.0769561273976
37.4033613100987
62.7918330709235
45.7812659571233
67.2004770168977
80.7072761222823
85.3264346126562
77.5822734036345
83.5557023262928
80.5870332037517
77.3969549430422
72.8185370946688
82.8680447083148
84.3620301162125
81.0933819705948
83.8984466375557
83.3796983399216
86.0629997291261
83.9169801147672
56.0665214696646
72.0829042252152
43.8501478667133
57.1239788907568
47.6467205778282
41.3214748611355
25.1770265906385
22.3075254572074
8.96321515198236
18.1946385855375
3.43289395570064
31.0025061986988
18.1398940467939
39.9778387151333
23.9627233116867
46.090507444136
51.4286074922258
55.606844201447
64.6477812995964
69.4903915247345
68.0663975067632
75.7320421546987
82.6576546214526
61.8191935177195
79.5639068379268
68.633287900981
81.0189123272221
46.3067876279977
35.7033004974572
38.741092467702
31.7311460294274
39.9193611015982
27.2781872812123
27.9225561744613
28.0614989905875
22.0210849643798
30.9555060134687
19.4275237801028
13.3575175468701
27.6895277589402
39.8691165847082
43.3518380058862
10.8758587086814
20.3991177720795
11.2998946542782
20.1256816500694
0.441501813685707
5.1091949939508
0.859743745332072
10.6484074104717
21.1665941374858
0.692998762673948
20.4592530695711
37.090485268268
9.2139543357607
55.7777098327053
43.1023181432833
55.3119604112165
49.9386932562897
64.6448405601602
62.7124348340219
57.9356164079661
62.0409222939009
65.9723035697615
60.6106750295956
70.0672788040297
76.7905266425711
56.1657725721524
82.2813292190281
78.0093100052954
69.5898302026656
73.8739877740955
71.4244546358622
59.4942882239392
85.3999780202518
90.887151174887
92.4855932285067
88.7614981693085
89.2194590169922
82.5955245025927
81.993112222727
83.2732180813714
89.7276552578756
89.0467906028741
44.1275954656853
47.0746372685777
31.1300008758506
27.394635063192
35.6284695572321
42.4173046566187
52.4673053392139
56.340129512787
12.7926441690478
20.6069704324256
38.1179218546073
23.8707444179836
68.46529169024
70.631030260656
73.8041353794057
64.8101623120738
44.5143129840692
45.108162396628
49.5062145495279
65.6492092663652
66.4722952081997
67.3651492038209
78.2995183100098
73.8485729084311
16.9574448629915
64.4371982518608
38.6991821287736
52.7204527030804
76.2203036766193
84.2211410786025
85.6070067567102
92.3621776188942
81.6966819685086
89.1926313973251
84.034553428571
81.4035497373047
83.3805671177302
71.0267777519126
71.5708147273804
87.3609319069785
88.6914694046687
84.0494681465641
77.9909875140271
86.3618873071895
90.3452752470466
89.2138472280009
92.6774231566109
86.8329893515241
52.5967538700492
63.0589912645354
46.9862469480096
60.9723499054281
53.7875127036047
43.3927220765336
15.4373590667854
24.7115318143825
12.2348039656613
29.2414843007278
4.49403354222067
18.9696594292019
43.8332936872159
13.9228153239995
39.4575573283504
22.5912547014406
42.0469797807969
40.7030729625493
55.1220612974959
53.2178226521728
51.5179761664905
62.1630396688793
75.2253516907424
67.617631131068
75.0869842162384
83.9340152003546
85.2678298331578
66.5712300869981
82.3207962876407
80.016133382971
78.8063666535067
69.3599861986712
74.0773368636722
49.2137383041017
35.876812608025
39.6355986017226
35.5378323543154
24.3290896982408
40.1783015346555
27.3740342417608
22.407655200166
26.9164057784137
15.7843581458466
11.4458470131841
23.2459550849017
10.7037704154848
6.48441604799373
15.3793242743711
9.17558521036078
23.030158088178
26.406455027128
31.5386038547547
45.9986172929059
40.6846806934816
11.9638722907639
11.2438988809895
16.3236022005125
12.772941314904
0.204181376958321
0.578839437990177
13.7659703471556
26.6790364113298
0.722617689663324
16.8071899376242
36.1857008525092
4.58652355395522
54.3715851414211
45.9647720017854
53.2910954121508
46.455635250682
73.5522343243702
67.7178023707717
65.9570763386542
58.9375371564511
61.6335971310739
59.2123442100738
74.817920729801
81.68629669604
81.0320725455406
58.8275021764316
82.4045071599295
69.3163730670616
81.4654716339086
70.8822141069507
77.1247558866969
67.5768254261466
67.0264022051925
90.5671521086393
93.5454497413175
91.1949789036797
95.0377659364533
93.4376458446544
89.3834693078553
93.9466868630976
85.9419552892671
85.7774205303045
94.9512822538979
93.6300144757
90.0064990734516
50.8012374478008
54.5340192474051
36.721753829849
26.4265441549412
39.1494226758662
46.7866940196228
51.6380259798503
53.5970619603069
64.6478932611411
6.3253241009059
13.5876540227796
11.8667395909433
27.8680430996685
39.843441517952
11.7189007902873
21.0085744161272
65.6764411857714
76.5287302106187
78.5758942347884
61.1463143639293
67.5424308218753
37.9105619478365
46.3932565872681
56.584376917263
68.7772341377616
72.6492832250221
62.0977905906932
73.1006807761883
81.8759363311154
72.7456850532496
78.5155412201695
44.2950086945159
54.1836292189995
80.0939661365376
84.3100203353675
84.2458859883451
89.2359780845664
98.7908579669272
86.8946245803054
92.9534210352198
87.8444166843412
76.0759096070903
88.3607387233786
80.343049008266
88.5530040623953
73.7132143361683
69.6551826967355
91.0906451841765
90.6831653867353
93.138293643439
81.1424590284687
90.2048524857034
93.337897451544
93.3535616434328
94.9337674822966
97.9262553148263
88.7448715311612
55.1826127376014
67.9579589698377
64.7757771117337
60.8613910844269
45.7589708750152
47.4736608066604
39.8618828935264
43.5363965952447
7.06106027196966
30.989866617617
1.10830203775188
17.2885963865385
40.6700231695167
9.15444612110351
12.0287280122178
41.3562775083823
29.1336377855692
42.8230241089548
17.7643113372003
36.451283534805
44.8089573938082
56.8905641886508
47.7488613456754
46.9415961075114
56.2381184164678
62.4956868452606
71.6624970775268
81.1050828159542
80.7059037910877
84.680996293646
87.8459091823986
72.6220451552801
62.8756109788134
85.2761573866835
79.5634295436088
80.9191547739254
79.1598491729057
56.2619992667855
45.603785440842
38.5774009362548
31.9317164175288
35.0439654265027
34.9869586754623
18.704768226726
38.9645231987362
35.3296536182725
20.3760512503323
30.378394940141
16.887226674611
16.7860307251492
29.5475441500439
17.9243008194387
8.55112380068669
13.8634371335637
14.8233355120208
26.8601835808431
4.81884793238258
9.9350082567547
5.66611819625497
10.0163265607149
4.82196801928717
16.865882382409
15.4217253780416
17.9951291400138
32.3255871858229
30.0754263837368
51.221827050118
48.1844520476759
32.3331708113642
46.2533930110866
12.592088947743
1.23012366493763
0.268646519888061
15.3303482514308
24.581545661229
0.249782053213553
27.735981507317
38.1724578306064
0.531041680584286
52.9321080440548
48.7559022729681
42.4870029956513
49.0181508737454
58.963269181332
75.4311986452986
73.0824050047651
76.194332317935
67.9775304483007
72.6706760518403
63.7928198482387
62.3977110731899
55.5915670700732
59.4411406399302
58.3122495362518
62.5488881724949
81.5953398571444
85.9415476858373
81.7011142188977
84.3659674059092
54.5305345701915
67.6364988600592
88.0351246495915
69.8014029688831
85.4977087601587
72.8731460153653
78.7737546261823
70.653495768271
93.8937976282709
96.1499440162638
94.9165474150956
104.505592919174
97.1104621880136
93.744001305841
101.493130660059
90.7961928657822
92.7316981101867
101.382952553269
96.3176465372675
95.1797408973336
95.8218375556521
48.715522908954
55.5002561830212
24.1640356341412
42.8496651929168
22.5435314748534
19.6884217923447
43.849288569208
35.3826261062185
50.3416982108202
56.0009297576006
67.7109091719156
0.851414766861238
0.979536903584957
5.8018715358721
6.42170904234873
24.3426757256639
29.0164201560353
14.0138350503448
10.9416374577313
69.5271946641215
78.2128178044171
76.6921906462568
80.7020980308136
59.9008630016506
66.7242485968593
76.0727323054873
48.8332008509508
47.8108773561093
55.0437674693406
56.8246242926116
73.3949408714771
73.1266792929541
61.7814978444549
84.453612743214
77.8768403095532
80.7506197815451
78.403908797083
32.715664686407
50.7409854930608
80.2012763657452
90.2297047568125
95.0983293090398
92.668141585304
104.466609832108
96.4546983669471
99.7941765099077
90.6722817226273
84.0395680128791
88.4525834963279
92.1769046445348
79.8104084199389
90.4452446552445
83.7418835302992
89.5380649298786
72.5559140940921
93.0618767205668
94.4972513481665
98.5099540516652
79.8432133641614
83.0983270578707
87.4292164910843
91.1510930378377
97.9487118012527
98.4121260648544
100.633084340544
101.16511744776
99.6252754791375
95.6432716631612
57.2227122861352
48.118178092556
67.7677638474197
62.2563655285972
63.0373613500383
53.5762180333893
10.942211191842
21.968697339822
2.85061528701199
31.1827584930034
39.6074382423011
7.20359247597018
13.623812168323
27.2420670846586
45.7103220169324
23.0916133598661
32.1332923185691
47.986347066377
5.98222176816862
34.2979253918731
37.1117613134985
40.0461002378472
55.8272379712498
50.9087711363803
50.270007531797
64.3355439854039
71.3727012952015
87.573504984758
79.2242864224366
82.7509017117962
86.5825250926555
93.810137378279
72.1198812682868
65.6557921592212
93.5130006592705
85.0403175584985
79.0682796523543
53.2631146620511
38.7612097696223
47.3257300629647
31.3300693062253
28.6616089478688
34.2194198448944
21.6313488542658
41.7888345396566
34.3215235959947
14.2548276656126
21.7707519413696
29.5699089692532
12.4570754997948
14.8889724417897
15.1253610432676
12.1689753327637
22.3593859452734
10.8115416824446
12.563903757597
10.0764636551645
9.64355381529586
12.263118672179
20.8246412541995
21.1170445830908
2.49964507501551
6.28325641242253
7.3797121513847
0.535136624157876
7.18111034610169
6.31837691726343
14.3352791783915
17.229116779297
15.1662568651829
28.199075515128
44.0566445064664
31.3348579596643
29.8342168589168
53.5702917599254
24.773372164094
32.8584324107327
52.5057752362591
42.7636267343099
14.5525125145723
19.7996314896045
27.8829098373292
40.3042477117026
58.1250717241866
47.1765843300549
45.860931242272
50.2388337328147
54.8488031033588
60.9041614864601
80.1265032815214
75.3563796345918
76.6070497474457
73.9996967277157
67.4794813474834
64.0043737207775
74.8839523616408
72.1195114626042
58.9315030192813
68.9791496826499
63.4583892154612
60.5225232421028
61.1004472431283
85.7147227106628
90.9772705327351
89.8128144890937
92.8347522480721
57.4369300156532
69.6806592809908
93.6358379437553
72.0425867963132
86.5614627774262
80.4498252517808
82.8128676624959
66.6089633406562
72.0568677711235
97.0790906770743
97.3937863929719
100.389823649362
98.1154400222632
98.7260761943898
105.740862814864
106.231082552933
107.679563805475
97.4991815056758
100.579094119397
107.167668244055
104.301875658869
99.4934454297398
99.4103018620615
51.7397796513694
53.6563831182191
10.2594786129074
19.8010488505307
35.4885676918307
14.5220379023948
20.5069095341771
40.4266760664233
29.5082923086599
27.4206430477165
52.792280440771
57.1929145659519
58.7477179357404
63.9497895729948
70.005243158868
0.397463275337
0.589914056681182
10.8506385843864
12.7574892227007
16.3591151535651
32.6005509512476
24.6890478815133
1.06476889325911
6.03924750076266
66.3643598155403
78.1295724958555
78.9246658613769
78.2618501076492
59.8828848215097
63.7675138323653
74.8299387174225
62.4911067492668
31.2204493785348
55.5042336802257
38.2383806902309
49.3660063450588
67.7621304099033
49.3203624126844
71.5423095910118
71.1404698429115
74.7797433634702
66.9459307535807
84.4162327089873
79.5149236540298
81.4719733465822
85.2999604203088
81.0697344264843
40.9575067814316
30.5713906832266
61.35682763694
76.8025336477793
86.7168262667592
95.6449762806988
98.5189406849696
93.8943512163353
96.375244294609
106.31702054908
106.474491025352
106.087600327271
98.2749997734609
95.9913350266036
90.4431215506911
84.6058250584136
86.8773042690433
91.6874515748525
94.9849825042658
96.7581782893928
85.4945188011612
77.9808682297811
78.6802001476461
91.5932113058234
88.8590158170256
83.9777747699437
84.1924583989164
91.8257642016575
94.0663708738579
66.7966167537851
100.980718961243
89.3835163564274
105.130035800649
88.3540671243528
94.8891603351672
103.15505202907
103.349851076269
104.501047383307
104.349129787051
99.4820271409919
54.1616562462969
48.0514370041769
71.7174485199954
66.3223562126513
65.5420305448569
58.0656792465475
11.7675188681208
17.404875364449
21.7683160404448
23.6227979200885
49.7872802772467
12.8334404931773
22.1163320349661
29.3916667038776
41.5122715415678
21.2698469349614
27.0945217184083
44.7828460755084
1.98226312417075
31.3285197171763
21.0602856122684
24.0692504332639
50.5898230945408
52.7506576166225
46.5251352405173
45.7095878828364
68.5990561294009
75.1158274803232
94.4448256837874
81.5045300520452
81.1420518184471
93.6554944938848
75.9092222014038
68.2232602081549
95.996388050627
88.0905033551365
92.7438824677742
83.765340539954
58.4556175908051
47.7931394769684
40.2012411736123
25.7996701331333
27.1933599224324
29.6190513007275
36.7939686951601
16.5434572208128
19.7139791436538
41.3228561788265
33.8989385303502
9.57012093318744
18.5978628052094
28.5216611643748
12.6194056826276
17.8138521112489
13.1261342280351
6.1836863774065
19.7406800049229
24.3126241583794
5.75889646877581
19.8250719297315
9.57795847533281
4.78684843520229
4.29358058965992
4.72913418820908
7.7501919162582
11.1366068482069
0.333739758162329
0.424208493142477
0.156763671047216
23.3024453765282
24.4362453089051
17.5825781977153
29.4396053456256
42.7613024725486
48.518671330759
44.4768948973577
23.7397553093446
18.9560631935298
55.0308234450821
17.5851964182177
26.9219314018361
53.5087197962772
47.0258518487262
39.7586726852604
12.5031779173807
23.884428476978
40.0670087667412
54.0260936425477
44.0085784352992
48.4752716044046
48.2668551034406
51.4027315041006
66.2122232046336
55.1711406467317
88.7991953952157
86.2299150479509
79.4061887588771
69.7172267823086
81.5585088345031
68.4902468314203
79.2950418974746
72.3724173987284
58.5916606603619
65.4908562402868
55.2625705152975
56.6642559976702
66.7101012793655
86.2811752056685
92.5119654348889
95.40719279261
93.4848341643062
98.1429961166192
65.1089104235612
72.4545500617175
97.0357696575864
83.4120851923661
80.4295812035341
85.1101298171088
88.3909189440404
67.9663349796054
77.2733815814202
104.430679816351
105.065160228287
102.134559613143
104.416894531218
109.374681458055
109.108698621499
109.601985918078
109.2275066669
110.294499967024
111.052014382118
100.780764407355
103.72651759618
112.306257239813
108.364252808194
104.60782803832
101.856333207201
46.1573394345309
55.8886051397839
47.3482496295569
11.8442212807695
23.7717322775674
39.7521927215551
10.0214007339453
15.4042684247106
46.0830163990498
27.7417965853496
23.1495661845918
54.4237882051107
60.2046537111718
53.9612598835245
63.2328677352547
67.6282437958596
74.4930658580617
0.273408273042536
13.6815924585115
19.2041475759932
30.9100229874936
27.730717521444
19.6471136990807
0.630070318737027
64.4263362447937
69.3276736216973
82.6401825195071
76.286250562153
82.4491303020154
82.4618363775979
64.1484503887006
68.2455945133118
26.2256769249416
43.3955281930942
65.5711542222004
72.3458076713674
32.7790805555706
49.6915701408135
68.3848843087875
83.5937234633546
77.9990167402516
85.1231688330585
84.7950387186651
39.8608678301075
12.461117790709
35.427315229222
63.2166745561015
79.5531563271327
87.4548889039059
87.90377915972
102.026387050234
94.9398187733854
99.607407546015
104.623454921276
97.574313219132
89.4573216115483
92.3092082460579
98.1005724632183
109.890745712183
112.640694721252
110.838861749537
100.035622863071
88.0671020481124
96.134331569005
93.6457625221144
87.2687659784926
94.7659604256396
98.8138943823462
102.225142323233
86.774718167498
85.0652742704604
71.9722139310677
96.8548754032297
86.6539123298459
87.16613274878
87.4723515261467
97.0584202184573
98.5084163667575
67.7460475218253
58.943531111063
102.104380049693
90.0835608593458
110.110709122376
107.596162683401
93.712971713061
101.468781188943
106.351982667446
106.366523915753
109.309950484384
103.377463528719
60.7481109399901
44.4614815662647
71.5287147447302
67.0034262045286
64.6243371100606
69.4042949705666
51.3747900376012
15.2045969498321
16.9159022043895
17.4123111574584
49.7110832382727
19.7711399826652
23.2937256594301
27.3481318310956
40.8395547688441
6.67523465544691
28.4342426366508
36.2485768923663
32.863889136271
56.0013059131562
50.971635952196
46.3937206636748
45.864494392778
65.4318932096468
77.6427350370945
95.9055782782473
97.7089087679835
88.3651916764806
84.5437669591389
83.898001362255
94.4584299360284
84.5079364917031
63.772468594501
101.244726419245
97.1574401482657
88.6286999593594
92.724498771767
91.796714323921
57.9780693993823
50.6471545138458
39.4543532579107
38.6418223039599
20.2688673354964
30.1857734272556
10.4568111199151
13.5581194600201
35.9852260961931
4.80151381892035
12.7393702599232
20.9681802853027
24.44739627405
26.0876649232773
8.36997133790324
13.3925724753193
7.90036145611994
5.61359510576439
19.6865269200931
13.8245712167364
21.761129515266
23.6217325405756
3.17388829386344
4.35933205702092
3.58462695461474
1.43469909538236
3.57382332327555
2.72311005095146
6.63215934446303
10.9790588704391
0.0895409813579392
19.327333736874
26.5910542588363
11.6009098951543
14.9672196522096
24.2037370855839
35.9895164608287
43.5555797481665
53.8398055385333
48.2711602036968
40.5035828593386
22.2559745314206
14.3834197034654
65.0436684353685
29.5647072079442
51.7387925196938
44.7809595246093
15.399505036766
25.7164193988703
33.4587596334215
42.0166706118687
52.6384228936328
48.7324956237834
44.7172974561659
44.7171532203502
45.7562180174923
46.910673131592
41.2841164144168
46.9652654776946
52.4629977128334
51.146929812611
69.2556189812848
56.2428566738487
91.1769575353607
91.1221689740585
84.0088268784185
89.0468850083491
73.007613207866
83.5301868089465
86.0789410131486
64.2168596513917
76.9494912690891
78.6718503862858
74.3011742777643
73.397878013885
64.6671033319596
64.0276461624261
58.1627030039602
58.9277835499884
69.9789393359526
87.7403350361638
95.3550747033154
101.156613491687
98.7776236025607
101.627252820159
101.680431185514
69.9330595224361
76.304633681088
104.679635940578
83.5156439202989
82.5419201555175
90.3799502726258
72.3911693535338
79.4352961214801
79.4982964318427
108.606663072435
105.048483816886
106.9944559908
105.225458520779
106.159186912421
115.0440159207
111.814448734403
114.264164440066
115.247555963578
116.978881138949
115.887161084107
116.031457353067
109.069162244364
112.603132784583
118.054425049941
110.936737952356
109.985094794877
107.565128449663
47.2906414677486
52.6839928546354
51.309382575416
7.00441598651033
0.881942032349613
13.7742734218994
22.9876421889292
39.7367023653912
28.8793104184276
12.8616301365474
43.7107346384861
47.5781008518097
15.0303075807747
35.2064750599912
23.1134741078765
49.4149802442781
61.0872880564756
58.1739829373334
65.8903639456173
71.0506513896363
21.9890914767179
18.72739860591
37.7831469401803
0.291674352020335
66.391231985631
70.035657648215
81.9086779456431
77.9177075980337
80.3802553257641
81.1866756195747
65.3459319400929
67.9147917912898
36.2511328030755
48.1816897084917
67.7180703046172
68.9269880445236
73.038080143488
32.3149268020451
59.5614468058799
73.0749134686254
80.2060839589302
90.5873620227359
77.6405376331611
84.4342313717684
91.9255491440898
52.0227743943177
10.1950680079228
22.661551979781
65.1555245263578
79.7174968646508
72.2769847770422
89.6135758036343
89.3661153684311
91.3049065481056
102.672066463739
93.1587584731693
104.605024906278
109.75457666778
105.331181837675
92.966020222196
85.5035882506976
86.359339733961
95.0092527576782
100.470925309105
120.691473830437
117.764983674213
116.174583018844
115.04536052591
108.004683358908
103.974677859497
100.873694839285
94.822053832782
97.5248071940556
95.9845728745078
97.251901584039
91.6780850026219
88.3016946637017
100.509982245317
106.473331017364
106.069862753278
85.5936077078238
76.8017797379404
99.1997769070964
90.4898840152983
85.257310245625
89.6540747579648
81.9762217421976
90.0393142838027
99.2525497319827
101.035342395434
100.35449211519
99.2815227777289
59.2101981186691
71.7495505567591
54.1505299926433
105.368022471718
111.567652507454
114.933248000924
114.793438394808
103.600446755973
115.515388768678
112.625534342094
116.618475769401
109.008632058747
64.6780226691211
56.3063444104837
45.2351302878802
65.1763972388475
64.3812728584224
73.969385022961
58.1554132636251
40.047037874144
22.4375296264197
24.7127041216053
11.2892844231743
20.970226787403
16.8360439947777
23.5484961271055
31.5307422642059
5.82047864690771
22.6260645772785
28.8612778904845
17.3790572720935
52.7972399392812
40.5368014298263
38.9890275270664
49.9983553228346
67.8113393395104
74.042447868985
100.015247501135
89.9565023551197
83.8259046375585
97.9454389866356
85.9625882990475
60.8913558860029
68.2884869389609
111.737886356819
107.388545834061
95.0950678379604
88.2032580239762
97.5850708786234
46.0457925975577
37.8213599835425
15.9851557463143
27.1708640094348
25.3729509369001
8.02896140024177
14.9230157324104
9.80578140304726
10.2692490793281
40.1602879916329
28.7919434837928
8.73393441434632
16.7421468740497
15.7423030574293
19.7899679997637
23.206224982615
12.1001997481243
10.3712339215402
21.1152420911109
21.9086203066866
15.7729886526395
10.241119936944
15.7480839724321
18.5588582314741
22.9062740594769
1.56200819028689
4.450746458308
1.60044594177733
3.38143185838866
0.191022523729951
3.92999649956582
0.258609348802467
7.30602958191439
9.57845661241017
22.4104996387475
14.6586408062251
7.02492330398235
15.6366733523126
14.3750074255791
28.9033124760346
39.6461549513321
61.5385468549665
47.3708199495702
51.9387500604524
32.8057115484267
42.029585742601
41.364972541203
14.8236589644619
17.2084383704994
64.6198385741335
25.2427276294553
42.4413891574605
19.5701047272649
24.69314139787
35.9685028116258
28.2749350057956
49.1327934419706
53.8065625523808
44.516866683853
43.5235600906081
41.8003197734742
42.5773889864671
54.4932038646462
39.4227021737597
52.780950703373
52.5035921198915
72.3185970772291
66.0491449666245