/*--------------------------------*- C++ -*----------------------------------*\
| =========                 |                                                 |
| \\      /  F ield         | OpenFOAM: The Open Source CFD Toolbox           |
|  \\    /   O peration     | Version:  2312                                  |
|   \\  /    A nd           | Website:  www.openfoam.com                      |
|    \\/     M anipulation  |                                                 |
\*---------------------------------------------------------------------------*/
FoamFile
{
    version     2.0;
    format      ascii;
    arch        "LSB;label=32;scalar=64";
    class       volScalarField;
    location    "2000";
    object      nut;
}
// * * * * * * * * * * * * * * * * * * * * * * * * * * * * * * * * * * * * * //

dimensions      [0 2 -1 0 0 0 0];

internalField   nonuniform List<scalar> 
109577
(
0.000512428759486517
0.000745509212232063
0.000634545103769953
0.00426631550469408
0.000425958264947742
0.0044844134917715
0.00104342025616375
0.00187350898828566
0.0115455578456872
0.000732948319260447
0.0012065351230552
0.000759000722665699
0.0086331574510611
0.0124830353462551
0.00102730845318694
0.00129826909325205
0.00221435813126959
0.000360490330354698
0.00899353995493443
0.0115369908946714
0.0181459229863555
0.00113859967051041
0.00695054158899749
0.000609821961512546
0.00488290097190832
0.0153601476125651
0.0106669915403386
0.00202417310616922
0.0197750033454311
0.0253366969009945
0.0209269254511016
0.00616866209348452
0.00540930365488489
0.00170035045276424
0.000370990564384303
0.00340809884234956
0.0214068728752754
0.00155489092470734
0.0246906440712761
0.00214306240574826
0.0249699797617865
0.00220765476526852
0.0123856848535811
0.0432215114856965
0.0257457815923548
0.0326692735533123
0.0103515756381336
0.000811632189189424
0.0121979865741509
0.00200797330603132
0.00131166645136618
0.00059201060327567
0.00404424176263654
0.0191310899859086
0.0344134781487195
0.00861456726189225
0.00999965560989079
0.0286255551532845
0.0143961596997896
0.0278754884075746
0.0412305855934519
0.0115160767815129
0.0265358110676846
0.0491840314146096
0.0541258766891245
0.0203914542253328
0.0333439732197558
0.0470180978502628
0.0416934753810146
0.0107178308680067
0.000975421233519921
0.0139683933864222
0.0061493596454322
0.00163218611394773
0.000443285250951691
0.00212862710991631
0.00684556382113241
0.0394281033921481
0.043265825980311
0.0486691702819002
0.00146501627091211
0.0208161727385795
0.0018167509509474
0.0181290537624803
0.021998091213089
0.0468078454684745
0.0212765180005007
0.0119770595060461
0.0576881904239774
0.0579959466452179
0.00161676997239194
0.0248738154281884
0.0198243824847492
0.0546667656410363
0.0629441900422611
0.0622137859156909
0.0272019535532833
0.0408285307276199
0.0510518041569001
0.0380361350620756
0.0148267594711222
0.00879995600083711
0.021946277160061
0.00105502113958776
0.00717590629515035
0.00023379734632501
0.00531233960365253
0.0105927652749158
0.0348305876285565
0.0477304358905473
0.0586855727725019
0.0522210059957435
0.060010124703278
0.000899749909562454
0.0236635496144898
0.014858204681662
0.00161538344770148
0.00791678160590454
0.0344104209895904
0.0389340350736487
0.0625298004072022
0.0165387218449618
0.0494308169884092
0.00197033630761859
0.0653556061865417
0.0689963112760092
0.0679929549759796
0.00222249129206577
0.00151810623507883
0.0437450884030828
0.0194705693637417
0.0256921038019097
0.0134591574448556
0.0560903385876431
0.0628879133146774
0.0646261908315194
0.0698492812221576
0.0744459202316333
0.0390872897012469
0.0551972375458883
0.0353832810256533
0.00133258539010431
0.0134450662689821
0.031154856217629
0.00084999036292518
0.00102662592907165
0.00300611801025462
0.00809090580180408
0.000399140249428337
0.00642983177382369
0.0167984561483738
0.031495313836324
0.0455319054566285
0.0607017521860321
0.0658674240573831
0.047854886210778
0.0742592562123435
0.00104969690057836
0.0370031974827256
0.0184782105809947
0.0211655753001513
0.0119622446901611
0.0121574459403406
0.00234251062447348
0.0165521254700953
0.0439247345398997
0.0503246513330651
0.069451116384597
0.00957576909978121
0.0313260867012102
0.0556418401088163
0.0617404268075274
0.0755755453849884
0.0783159500315473
0.0754725466806887
0.00777621470281889
0.00839531707465914
0.00181813169165138
0.0130812990323859
0.0402345239861139
0.0265862649014259
0.0580323965552894
0.00193199116953125
0.0220436266136872
0.0705633620011863
0.0700267648096263
0.0767911204760746
0.0893974542871676
0.0619190830821926
0.0858600340366601
0.0379456090871324
0.0652700458443813
0.0163524294665583
0.0521398432520416
0.00710985554504617
0.0140259362623905
0.0307990405928561
0.0273546816051015
0.000867903737588278
0.00102549650642307
0.00950648302508541
0.0010497747195093
0.00552760437476618
0.0144446088653475
0.0437770248220634
0.0545157820015319
0.0775912464583017
0.0751551221489339
0.0572219224978107
0.0836398426375668
0.0460780570066746
0.0307889079833519
0.00918359982316348
0.0177410715061152
0.00137591538107368
0.0201631679032815
0.00639540178058066
0.0110284740536085
0.0347893896287913
0.0525551981726246
0.0521589832294154
0.0600484939163973
0.0750282123652958
0.0771414406014454
0.0185346714000587
0.0415171307148805
0.0445199266291332
0.0702546083295399
0.0528985341049057
0.0745738029352575
0.0953940242154656
0.0810274032060851
0.0953650155408101
0.0870294346140851
0.00166714498369341
0.0205332565037595
0.0115148628411622
0.0200029276259184
0.0250194624464471
0.0592857205701132
0.0397266398642548
0.0190148915706515
0.0430048552687224
0.0662174080587319
0.004992202459593
0.01134802011295
0.0512406934893968
0.0870381440941814
0.0731107917424386
0.0918142622402322
0.0733831645369978
0.0900706315005608
0.093764081270594
0.0998164324350993
0.0967357834184178
0.0541889446633509
0.0823831878161307
0.0682367456287105
0.0170027655312546
0.0430694056213706
0.00961583183815545
0.0211259662799957
0.0304362605631701
0.0283721805881578
0.00126263215866158
0.00109002844950574
0.00181619660360283
0.000389906639924003
0.00744063929318661
0.0126167694422419
0.0165759230608761
0.0387204275342364
0.0494361666241189
0.0705133509360823
0.0798742142656771
0.0863014345443175
0.06710950950484
0.0823009544549315
0.0784231934035794
0.0550960528901403
0.0874245601124946
0.0421520484262023
0.0263481309816442
0.0309131448485042
0.0182498192697376
0.00901293952764587
0.0011011125439518
0.0319593130641686
0.0102917828028601
0.0230808585673614
0.000692600063177211
0.00532344485871676
0.00592768341017712
0.0185878405847445
0.00760000823453991
0.0387971241756961
0.0420458020709327
0.0500237068285396
0.0692218673899191
0.0532285005878305
0.0730149989032709
0.0823346938341776
0.0450609938098302
0.0780533286722662
0.0737401246430131
0.044733231402215
0.0603382269929766
0.0928932447904005
0.104142996521722
0.104637902804058
0.0943355259067855
0.102580159078726
0.015071775942749
0.00493138936594898
0.0180836572381313
0.0220186475450475
0.0259549979599579
0.017304286261915
0.0571616615856693
0.0592204360175242
0.00887810323304421
0.0338125339291819
0.058887684175546
0.0517751248380397
0.0701613140784688
0.00044388851266403
0.00167229812731549
0.01867314826544
0.0553644834118504
0.0870902739095363
0.0960650185320296
0.10044048936048
0.0855135675859463
0.0647355330270734
0.0961440118395749
0.110070691922358
0.105808408378898
0.109984395443431
0.103743566259768
0.0507434982434286
0.0834446516532694
0.0428287312904451
0.0478369823481777
0.00471520995084447
0.0401553714427135
0.0223354796011733
0.00614979852608458
0.00665821646930492
0.00164957231802627
0.000226714535780978
0.01634611760244
0.0109761927278792
0.0176192581436257
0.0395178215784366
0.0493292580850972
0.0525825656706784
0.0584083724111887
0.0739016055370463
0.0719699123066554
0.0894892469369098
0.095776131498797
0.0633966846030487
0.0893604688693374
0.0750137658095556
0.0960750731313287
0.0400795601365639
0.0208133049975191
0.028137171102107
0.0208047374471091
0.0163947627400045
0.00217649793910258
0.00120815984622597
0.0130713996601165
0.00102583686604817
0.0092790238813212
0.0327454183362399
0.0286951942351672
0.0402385763156051
0.00546627098710006
0.00882015907396373
0.000495950206068044
0.0026730704535852
0.00177967664400906
0.00218177723978361
0.00181379695853572
0.0113380270391728
0.0308136563416381
0.00110696900060562
0.0432687883635791
0.0610354382910626
0.0459692053987094
0.0689670844582751
0.0732836001805142
0.0744150681126293
0.0500735594724743
0.0689139694745271
0.0773143273054209
0.0846815620406823
0.054986247129633
0.0985837125324274
0.0862442876644301
0.0812040040508985
0.0591196475516297
0.099120625389384
0.106263727628729
0.122761760253163
0.115349213613349
0.100990947719841
0.102688092717446
0.102653744117328
0.116745006248568
0.0207841049329343
0.0235874552361954
0.0121125103043433
0.0188371591767793
0.0334938064915876
0.0479567485524721
0.00869465762126567
0.0178567740207646
0.0746173769392143
0.0512280036053986
0.0147934961498447
0.02583746655223
0.0591623090534002
0.0453893885454171
0.0899922278099048
0.00614374568789139
0.0481694169107154
0.0143018128094909
0.0582344805507707
0.0969594620263894
0.110636527825727
0.0954289302136401
0.113097874186687
0.105526678805913
0.0880094863535909
0.0741958493746415
0.103030400617329
0.122432385246559
0.112437529696986
0.115855486079323
0.115189870065107
0.121149946088718
0.117427967065648
0.0604132950081375
0.0924234242355476
0.0279727436183294
0.0456915150657779
0.0445429998653771
0.030986019164201
0.0105212736480556
0.00672493507934866
0.000875677204268766
0.00152449365272152
0.000546213008286893
0.00818776927967333
0.00628651787092463
0.0268108965633243
0.00731922192089257
0.0319378244346833
0.039001758488794
0.0521122428117927
0.0650087821517877
0.0756540447513821
0.0744677546142147
0.0951810375973035
0.109316514621431
0.0627564885742436
0.0985110617078194
0.0785655793464927
0.104394822392296
0.0419338241834632
0.0198481933020925
0.0315722623641386
0.0230282064543028
0.0337813068942439
0.0174818922526059
0.0191347738488101
0.00738746452224825
0.00629403771267235
0.0135864112891895
0.00854419605339644
0.00514011638354639
0.0122329494480668
0.02912062668512
0.0367452630038757
0.00132341102455652
0.00622035849354623
0.000845927147927173
0.00696228700962045
2.64589105620803e-05
0.000553783538110995
7.7268634234218e-06
0.00159526256809128
0.00798012191097328
6.96763404259411e-06
0.0103500995275968
0.0286184707680694
0.00236905728949101
0.0608572964859194
0.0379784786521216
0.0603546257982033
0.0513492066045089
0.0759997154174418
0.0709893148407777
0.0603338673892669
0.069890396175222
0.0775472508819489
0.069395599198561
0.0851454122726215
0.0970888453844538
0.0552599134902627
0.107542413418469
0.0979268908251569
0.0788091360389179
0.0915243351656587
0.0880232009305665
0.0583104689732975
0.114070078062947
0.126756488828798
0.130783047513587
0.122173701793959
0.124427639369217
0.108535106513584
0.10709993313723
0.109527708395168
0.124778199549427
0.12318220221894
0.0265381508858505
0.0265564938576163
0.00213524896672583
0.0127072823163624
0.0218034922293482
0.0319206316029681
0.0480903824523958
0.052191128830465
0.000929237282585192
0.00645246382568202
0.0216323021255426
0.00789811957135535
0.0715043557521204
0.0799715477920032
0.0862406747955041
0.060473861454728
0.0100458561340208
0.010179632191044
0.0161853813068147
0.0640438505762354
0.0545623552314739
0.053056784021942
0.102473191456578
0.0926167429594184
0.000433193682369307
0.0518688326690509
0.00736380927538158
0.0226160701944239
0.0819820734999791
0.10698547417974
0.111436276812471
0.128119636498558
0.104913857460281
0.126352250457384
0.113758061850525
0.0966319472788706
0.10699839451762
0.0702574598477793
0.0668749249254733
0.114895010236547
0.131958845288989
0.12125907381467
0.105572312120391
0.121928848937232
0.130211634032207
0.129137532723908
0.134380043054342
0.119652896099369
0.0546184379493434
0.0716264545685761
0.025738400055413
0.053234350945051
0.0342038310577004
0.0356306644576449
0.00132691349270175
0.00791422282349839
0.00271342663362014
0.00144610461181046
0.000374570419824042
0.00138211159855149
0.018286871093781
0.00367318012226417
0.0256586332085913
0.0066857562512505
0.0245856794960141
0.025103982005988
0.0411415053976227
0.0428154186887541
0.0473569755430427
0.0551993276604273
0.0849157198695991
0.069780836034633
0.0894321075790379
0.110375662355685
0.113225516476107
0.0715129400475985
0.105180249142569
0.0975333485885513
0.095475519310425
0.0792258593613341
0.0877857889837826
0.0491596570343951
0.0204393324265855
0.0308486284424891
0.0288594033668296
0.0135553649518275
0.0386396948929186
0.020397444158304
0.0128688316535209
0.0202404893611937
0.00107116986800694
0.00109077764608358
0.0083977706782721
0.00419819256135844
0.000774428866949909
0.00616479390512383
0.00347023925289019
0.00674826658020023
0.00945047984932789
0.0156816759745188
0.0417606916600615
0.0293179209690711
0.00138695173981815
0.00133913921448938
0.00197422961234383
0.0029229645948819
3.80722073658595e-06
3.02230395287065e-05
0.00183276668842719
0.0128000576820504
7.13143474104844e-06
0.00585687896299446
0.0289635975682769
0.000644773456151717
0.0606591763482557
0.0452186212136832
0.0596109080391409
0.0480026320263422
0.0928680903582626
0.0790861178558596
0.0742732924342408
0.064959711727978
0.0709622817798977
0.0693118641499886
0.0947187510913536
0.106835937117292
0.10187788967142
0.0633886898041568
0.108462664474439
0.0793829524485499
0.107404304390945
0.0862807242098218
0.0997013052996146
0.0824235280201536
0.074893231469044
0.125776888526709
0.134347734573928
0.125514791110362
0.136980129122743
0.131969827485122
0.123254490219111
0.135388313856763
0.114352733189555
0.113572435176998
0.134498973287384
0.131603622011312
0.126187256786934
0.0392688376217205
0.0426111860533236
0.0101783309872625
0.0112300085729714
0.0255488566349599
0.03977060463038
0.0485714646952403
0.050182674439292
0.0691721134702855
0.000712379690099501
0.00294078539716881
0.00109615691631958
0.0120500952831422
0.0249137136202345
0.000828203829701206
0.00697939525338364
0.067990365688826
0.0921683021510539
0.0980800757364681
0.0556478551843453
0.0632999499101235
0.00272646639801867
0.0121369360176432
0.0268833071227577
0.0754672031731093
0.0699442540233391
0.0436089852633643
0.0702525268600151
0.110998592688022
0.0954880628248476
0.102959723952009
0.0141557910168805
0.025481609496268
0.0946432605896452
0.106822408562163
0.109033115857324
0.120483826278871
0.14247478975714
0.117376198712641
0.134312445518303
0.123072877941995
0.0791287497594381
0.116167451667865
0.0984999896388321
0.11975757367336
0.0787936904275081
0.0610388235384732
0.123757062444893
0.13421310511428
0.141360765211418
0.116440694117697
0.13483603991824
0.139524366871795
0.13624261848889
0.141218856916683
0.146976597377257
0.122220744841925
0.0576480369221896
0.0856046352812939
0.0683293865777438
0.0669114242784813
0.0254105590132475
0.0180354055404534
0.0290984286472966
0.0351301426404836
0.000896076776499979
0.015382647526359
0.000196381173339273
0.00128477807690404
0.0144186138909668
0.00101713227219429
0.00275478205482979
0.03018261141338
0.0131799752078506
0.0257055464729543
0.00575303252292508
0.0140578738174464
0.0161345461918201
0.045066341528899
0.0356893681458475
0.0381058481023315
0.0545286186142488
0.055490062739043
0.0764131785126413
0.0937858051339461
0.0975854312076438
0.10724617878321
0.11334712431151
0.0791054844372251
0.0648811599505016
0.108805708422907
0.094822664814144
0.0994067047204496
0.0971530110953868
0.0572672402648664
0.0461011407639118
0.0258741590677198
0.0152998581228776
0.0279631512231315
0.0306216836798447
0.00995039446071422
0.0373498896278018
0.0328492880596195
0.0106232690149334
0.0256989973410932
0.00928817413025946
0.00947906582486153
0.0246354652628804
0.00441717037410009
0.00100844525220869
0.00474574438002251
0.0037586323421986
0.0103071888268753
0.000510032714758201
0.00392032245703439
0.00169967212546077
0.00106306801564363
0.000722811208983693
0.00187149682145349
0.00157429071249666
0.00193348847194774
0.0160916358375318
0.0126276426949827
0.0522126063288173
0.0471796448376392
0.0161236429400577
0.0391927613789103
0.00141780547442612
9.24819980110537e-06
4.36876225677845e-06
0.00193286027863826
0.00991184877649543
4.19929089987857e-06
0.0149219334125721
0.0327081794724529
2.95855349867565e-05
0.0598882906466588
0.0498592866368541
0.0403796264966595
0.0531705807139057
0.0681903636946587
0.0943384220099057
0.0937574681867803
0.0975246273961349
0.0777825112105763
0.0879745184821587
0.0742077990240135
0.0664689863157529
0.060440761845962
0.0690023690948922
0.0679238247648967
0.0766054687238773
0.108091910761192
0.113887455440703
0.10278936127623
0.107679458763796
0.055609700810539
0.0817217776196817
0.120877618331407
0.0820436422617396
0.116124757641633
0.0914420412028222
0.103562101959662
0.0905288482445182
0.132583253985292
0.140465084864019
0.133931078065438
0.155740157295075
0.139429607807775
0.130990951128029
0.150252618439701
0.123728072178153
0.126622698858996
0.148261511235078
0.135845073535876
0.132415834797
0.136684477996005
0.0379215691307381
0.0453911544065316
0.00769097123283367
0.0182129452607777
0.00700623998984869
0.00512877802253413
0.0331673256357683
0.0197131811800368
0.043623272625305
0.0559491794194664
0.0783383456343663
3.78604471809877e-05
8.2498459318885e-06
0.000586050524300839
0.000798590304023033
0.00816489275605622
0.011781375040451
0.00315914033339355
0.00104819312082684
0.0788937969406337
0.0945399322730736
0.0942616617662606
0.105659487316193
0.053684362145517
0.0610769591303725
0.0866032883698712
0.0124985447120505
0.0138135130642661
0.0236557013908006
0.0261358829109273
0.082839506561825
0.0701146852066928
0.0434559072366492
0.119511140086599
0.107495601387528
0.110447068794479
0.0965394491061798
0.00263486232750966
0.0218489280733117
0.092960835790612
0.1203809962307
0.133952769814884
0.129113226169229
0.154106867293016
0.13760878814761
0.144744101267594
0.126325415336045
0.113315891171346
0.128341166222933
0.130940672149816
0.0889074416027414
0.120650390643202
0.1060981768989
0.121413709899509
0.0713621040340785
0.127846588786624
0.14775781449472
0.150601772689296
0.115962876955494
0.12181775365002
0.131597776280046
0.136654640313983
0.148626840183628
0.148279281886571
0.151180222743295
0.15256680185128
0.151226847821431
0.134434471434602
0.063268745146404
0.0430412777910238
0.0867445739009656
0.0634078888150148
0.0734543951342915
0.0421763056255116
0.00112430967738408
0.0060573029519222
0.00040795742323272
0.0077235473342155
0.00827856089502915
0.000641850567352653
0.00342822273395387
0.0121580717666983
0.0370233485368472
0.00926378086796233
0.0123688068642006
0.0353134301406639
0.000517966165512479
0.00948557700769521
0.0089938556833276
0.0089041016695915
0.039294581836965
0.0345660386279897
0.0411848694924034
0.0561724786364579
0.0724717861987708
0.109815491859496
0.0845833739585794
0.0982411494182144
0.107858827226668
0.122749064760967
0.0747335901892064
0.0637720500718421
0.122154719043814
0.102425415442649
0.09626525629401
0.0532479506947961
0.0368611923106348
0.0483034292703095
0.0160747158301314
0.0199954187524392
0.0286979405472181
0.013605558284929
0.0424203465180321
0.0319557480586925
0.00467468503753565
0.0118252092191325
0.0248963653706449
0.0061756377036015
0.00771024722671151
0.00798048986422448
0.00433360944364563
0.0172569397157113
0.000936839763346791
0.00208970557147371
0.00303640436174621
0.00389953903356298
0.00420913623724766
0.00168034427364773
0.00858013773581164
0.000397913839276098
0.00175030357949735
0.0009077300682611
6.11227931905194e-06
0.000884678789503281
0.000831279430391588
0.00172765068140004
0.00166044903269267
0.00177397218469337
0.0106856928571553
0.0386373118501078
0.0132249085562535
0.0102553573383812
0.0562254592153307
0.00787467537544591
0.0154374107430993
0.0525371097920493
0.031765524056556
0.00152194722211915
0.00665016614745617
0.014172705744934
0.0381076765794624
0.0699666156199042
0.0510678500707732
0.0456472736880338
0.0545336924683574
0.0609084996003812
0.0731358563816976
0.101812873442275
0.0944452090833311
0.100549157857905
0.0950905769216709
0.0850465014807621
0.068394039067416
0.0890786293551862
0.0878058875879966
0.0641981247851414
0.0831202715836656
0.0780790024869793
0.0730730462582909
0.075191738060566
0.116273815303444
0.123288359381339
0.116004248468192
0.121754197844003
0.0615971374287406
0.0865877570641859
0.131981973345701
0.0882210939222655
0.118750995027529
0.107938689962336
0.11130199052228
0.0839100012187252
0.0937296380826227
0.137526748289202
0.142533455474371
0.149377482750653
0.143167147856935
0.141717864909555
0.156663537092129
0.160379967196234
0.161752079269324
0.132751303207685
0.147367267513455
0.157245694666786
0.15013140339527
0.137924170291731
0.142030453516822
0.0416594532268611
0.0392881193023107
0.00076969435660048
0.00590370267662815
0.0141281053441197
0.00144967091747022
0.00524598112022142
0.0273462190736446
0.0122304103135548
0.0103452801999469
0.0488093176311098
0.0601390863076016
0.0614907286287287
0.0722063691051285
0.0830826841514266
5.30794623768332e-06
2.99940402185771e-05
0.00103706678883384
0.0011377326347008
0.00214302074393117
0.0129208970046019
0.00692709677902507
8.59782813685581e-06
0.000593099674184548
0.0708456533815793
0.0959633816250309
0.101329580988594
0.101555052152595
0.0511042424619147
0.051380441937946
0.0832107808687574
0.0538535356381587
0.00211524360833367
0.0238379492065254
0.00294299216272295
0.0143610146194704
0.0526756719750629
0.0142176841799569
0.0781253121394244
0.0637004469763784
0.0744576870898918
0.0547538602635392
0.123643226173975
0.114644198707715
0.116917327549694
0.120100394568987
0.103333984708284
0.00949485274978445
0.00655276603940153
0.0472761417285464
0.0857940224227077
0.110376860328562
0.13400904094744
0.141919762832546
0.131773413627284
0.137511186433788
0.158076760005619
0.158087260131666
0.156785667664623
0.141490608425612
0.1368383684703
0.126316292758648
0.115179688696122
0.119465452541441
0.134904409009564
0.138753269139831
0.141142392675185
0.10536341508687
0.0839400407560141
0.0847020618410562
0.123086926182569
0.115356031937127
0.101870518142225
0.110052771445378
0.124001783498699
0.134912403987533
0.055528097607613
0.160098107973244
0.137974988701373
0.165844533675288
0.133031454190203
0.145227227013622
0.159766553170875
0.156951315022429
0.158852705229986
0.159181386098929
0.137206655427602
0.0566725141184176
0.0442131938918435
0.0961898790471435
0.0691878130082348
0.075815127072517
0.0463739344541119
0.00117476354401784
0.00177422124148165
0.00623747379296271
0.00191156273943884
0.0174544247048558
0.00121663210135977
0.00797591552395466
0.0132475940596692
0.0308218151665256
0.00719145133768952
0.00815882043758535
0.029839720024058
0.000274189195253952
0.00282721655310929
0.00149331612523151
0.0016968918983882
0.0249476397673896
0.0399522422631101
0.0225838829926531
0.0360247402632727
0.0587935185167906
0.0752091224312201
0.12103685737014
0.0887126109573942
0.0827589569556916
0.11816590167962
0.0776890491039905
0.0649036936846447
0.123107821512064
0.101571429508448
0.115425700115113
0.0975245749580321
0.0604819130290725
0.0424837210096637
0.0386521735553842
0.0126495205021593
0.00676519449234989
0.0233429019891945
0.0311900286208731
0.00755171524484396
0.0139695988633499
0.0427297425889233
0.0321015961441731
0.000924808979908272
0.0075933976903838
0.0246220154531894
0.00538220693687232
0.0119144707908118
0.00550280449972514
0.000731457833160787
0.0148938947722074
0.01887037514799
0.00054716641861596
0.00130973454316027
0.0012419536550221
0.000721203292128521
0.000434487004072892
0.00195624907847422
0.00124630432231355
0.00110051139626471
2.32023926460262e-05
5.43965651906265e-06
3.33099823918096e-06
0.00748015170145581
0.00869953958518109
0.00178491702915869
0.0140337748117795
0.0380018448420442
0.0463141644003722
0.0358199975611316
0.00550234968602167
0.00143758163743765
0.0589538752399977
0.00160521398163267
0.00801018678831944
0.0547673720368624
0.0406963476927696
0.0260409306756889
0.00167096197825456
0.00866991785542343
0.0395504138359159
0.0648165624732374
0.0476136701831686
0.0528827901191345
0.052688359850073
0.0564722957729786
0.0809454883337935
0.0656341603117096
0.115903692833907
0.110205484340033
0.10565787547629
0.0889366763879602
0.108298583916008
0.0683452236141964
0.0894104039732954
0.0861045717302264
0.0608320735072863
0.0825230716902994
0.0655275219724934
0.0691234544328428
0.0839738909452472
0.117649774656146
0.127167538494036
0.128913765084827
0.119020228501792
0.12811999313664
0.0773744243488792
0.0941910083309748
0.136835243916891
0.113926703541215
0.109089882913269
0.115701196499725
0.120535406412229
0.0869068314946806
0.103202856423371
0.150774980789985
0.15721062267404
0.149629474119259
0.154238177246731
0.162230433234103
0.162695916663897
0.167629191562137
0.165472594664153
0.164864447237186
0.169409523987256
0.13708086207881
0.152002193513732
0.164530739806027
0.154527878740479
0.146138354806357
0.143611055246116
0.0313622465792235
0.0521691852665968
0.0322021702918247
0.00257227798102881
0.00823208076841976
0.0212714156049451
0.00120541964674455
0.00150634646457074
0.0362212555536648
0.00880625293250886
0.0060922099352607
0.051266628522441
0.0658572310911401
0.0540512639684323
0.0722781797430161
0.0790245411895216
0.0930983778550127
4.40499172812365e-06
0.00117837376629032
0.00232285969441604
0.00959218627786822
0.00790237413040624
0.00218505657530892
3.08408149908298e-05
0.0700730320551186
0.0750827203284441
0.107594371646562
0.0905199226907279
0.109020524144236
0.111338712442798
0.0607278795100153
0.0615866889297301
0.00189723249358563
0.0102419537698744
0.0485366134403479
0.0657104118407486
0.00244162564922815
0.0145079456033392
0.0658940491143126
0.12466953876642
0.110239569526507
0.122007416842175
0.116059215991129
0.016548542365184
0.00123794212933054
0.0137952119328892
0.0561808397337425
0.0941119909702482
0.111077445094185
0.113927914394097
0.148532112839254
0.131883724136721
0.144457786501616
0.154254040529969
0.139982449259804
0.122533752172288
0.127343315579019
0.141549916987864
0.165265313494025
0.169296808935869
0.164392650602271
0.14437958685573
0.122357549082126
0.136846738080773
0.132948343609188
0.120190281595675
0.143557138871801
0.147295181762901
0.154101621644871
0.109238509294552
0.103694439283
0.0644264363847681
0.136244961857089
0.108126236312651
0.114562671021197
0.120084442331405
0.137318877429397
0.145237442591437
0.053840072988538
0.0359827849974989
0.162218954809708
0.138524353469801
0.175021543306142
0.170078421413138
0.145267043547899
0.15788920506672
0.163956662436336
0.160271757989198
0.1689633263381
0.141050352703182
0.066456627291495
0.036766065526105
0.0930023757905143
0.0740427077316969
0.0619607467845775
0.0861299634739416
0.036406328151599
0.00167032645389832
0.00175494151348683
0.00125785381058141
0.0179178531676779
0.00654732118910354
0.00604834075988937
0.0108223207330289
0.0290912133082334
0.000409302831313146
0.00872318464078752
0.0177675155560695
0.00750623018794324
0.0270202439955817
0.0336603975943226
0.0219527836727763
0.0294581543542824
0.0448631271017341
0.0768618148570433
0.118806266302914
0.125953253186603
0.0949289971201915
0.0899274859705446
0.0837529778761394
0.109773022609521
0.0918253738767722
0.0518853734505013
0.134381352301247
0.121156705210214
0.100118700733884
0.111365487491977
0.110555918389257
0.0565504428670688
0.0443399600062522
0.036262252718446
0.037698232884146
0.00592730154010904
0.0232708063420374
0.00365307770877389
0.00905911015063009
0.0357141563051777
0.000644697555055265
0.00168538771976588
0.0128206419119129
0.0204185259567366
0.0214791105407708
0.00113323001045704
0.00714688025490724
0.000840070362918727
0.000698866405862946
0.0166880555158702
0.00728903626229269
0.0171972815610515
0.0186909573612363
0.000368725667834072
0.00113796216745586
0.00139055422217858
0.000290419565499235
0.000737145348703548
0.00116801109002969
0.00083627522616318
0.00101952265668271
2.52121506949998e-06
0.00248061437480165
0.0111717657054179
0.00107334836587654
0.00165196556149429
0.0076415784808968
0.0244822956634569
0.0405910147236599
0.0566129250474361
0.0477031090810616
0.0281125556940287
0.00497893179651678
0.0012374894111146
0.0808890749029685
0.0114972274855202
0.0509032305426984
0.0356680485661039
0.00185415955371789
0.0124710000427984
0.0272539939869211
0.0435984775473535
0.0632162668353985
0.0560718274120065
0.0492151329988037
0.049460516970459
0.0497127382697078
0.0494724600466112
0.04226137352772
0.0524644821811291
0.0544024059466484
0.0583822116933122
0.0848460422071909
0.067213571766752
0.12373147584781
0.118305378750716
0.102989362355031
0.116521991166815
0.0953184313505683
0.111788971093822
0.115055282139087
0.0591952973308626
0.0812497831564271
0.0869813586941894
0.08834652826233
0.0842804342291689
0.0661781177674263
0.0809065181278663
0.0712869979476923
0.0740297178322219
0.0902775452566595
0.119882570547002
0.13079460982242
0.137096276417879
0.125443713368959
0.129795013894206
0.135729940141971
0.0895197280426136
0.101689191860909
0.149314316958971
0.11498308285867
0.112951597960361
0.123761053668312
0.0954673358731532
0.107202033474573
0.107658535939502
0.156474385486923
0.156776059030931
0.161550302872655
0.156564512981983
0.158214954111622
0.171251737082088
0.168812067107597
0.170789358812996
0.178651733106383
0.181049224556996
0.174551782725961
0.178078504793285
0.15924265906518
0.161779578512154
0.175370271000356
0.158403090171291
0.15524434947208
0.153511069776074
0.0334491566659878
0.0451020815565306
0.0386127580852248
0.000772161832188096
7.8240450402704e-06
0.003351502042063
0.00626436884591358
0.0208076964716496
0.0105069020374134
0.00136707317586931
0.030706511527134
0.0405868000701116
0.00111933295873059
0.0166509986472584
0.00603295640990487
0.0407209401754786
0.0681712725515689
0.0629744135296734
0.0785476365924648
0.0871107234406308
0.00232058648279026