/*--------------------------------*- C++ -*----------------------------------*\
| =========                 |                                                 |
| \\      /  F ield         | OpenFOAM: The Open Source CFD Toolbox           |
|  \\    /   O peration     | Version:  2312                                  |
|   \\  /    A nd           | Website:  www.openfoam.com                      |
|    \\/     M anipulation  |                                                 |
\*---------------------------------------------------------------------------*/
FoamFile
{
    version     2.0;
    format      ascii;
    arch        "LSB;label=32;scalar=64";
    class       volScalarField;
    location    "2000";
    object      p;
}
// * * * * * * * * * * * * * * * * * * * * * * * * * * * * * * * * * * * * * //

dimensions      [0 2 -2 0 0 0 0];

internalField   nonuniform List<scalar> 
109577
(
-1.96660354907791
-1.95705366842743
-1.98500780460139
-1.9242228464094
-1.9540751441071
-1.9279199175108
-1.84538207607563
-1.93064073434598
-1.85010361249143
-1.86142118232186
-1.98207101911691
-1.87341715848099
-1.9418074806679
-1.8111658955607
-1.85868477560665
-1.92804885606561
-1.911175698812
-2.16637170593968
-1.99077562518148
-1.68230775153524
-1.83856635037154
-1.81622647529879
-1.85282156470185
-1.89345288631581
-1.85841538454521
-1.73224616699317
-1.6994355874454
-1.80534980287056
-1.68532937894269
-1.72274326764615
-1.68079951754839
-1.79258439813306
-1.8547809376792
-2.01981244703068
-1.89907185842187
-1.88592377369284
-1.76210440268611
-1.94385451680265
-1.62855612456964
-1.86902558120493
-1.57552949255928
-1.83588851322668
-1.65984397638035
-1.62662471711137
-1.60813030660363
-1.78855606598046
-1.78239606456845
-1.73251475316119
-1.84585497894387
-1.83284555197188
-1.93873743990769
-1.89974532247556
-1.8954500889974
-1.68734791552483
-1.70364739997406
-1.77806825799105
-1.18783318740414
-1.18884828416582
-1.40626292130652
-1.24753747035223
-1.58418376857605
-1.23864304773261
-1.54444492797118
-1.40606707641051
-1.69225521569223
-1.75266325468339
-1.84545328215518
-1.70958636847657
-1.5913823049731
-1.83215350131662
-1.71950178852446
-1.82328951200504
-1.8003766645999
-2.04113063806835
-1.91727812046914
-1.91052801816773
-1.85813903936372
-1.54786194773399
-1.58259744333266
-1.54517908554567
-2.06068581121739
-1.42967217851577
-0.887749668958864
-1.21040749293531
-1.07088747376892
-1.30775376079134
-1.30993378292517
-1.14382229289177
-1.38420994308853
-1.46927612068967
-1.05426935080499
-1.27530942448344
-1.43194171782099
-1.22874984740629
-1.57571967600317
-1.42285120164329
-1.7872454475619
-1.61091204369427
-1.63403589344127
-1.57069140956966
-1.55461298097347
-1.74766904132278
-1.78289869824764
-1.76670025607475
-1.70519215768482
-1.91098376150044
-1.82624111560196
-1.73401286805988
-1.40650606869823
-1.48335898432446
-1.58546228737194
-1.29404996339608
-1.51537981654417
-2.04111809712461
-1.1691034177345
-1.66232023670408
-0.914232510669598
-1.02852216409386
-1.22601628369301
-1.16681871629741
-1.25094210074199
-1.29225545263934
-1.29010420308086
-0.837172836523318
-1.38537999954793
-1.32348011108686
-1.49968012894475
-0.958337060649208
-0.881860644966381
-1.32661272472609
-1.2296434653253
-1.65775745372129
-1.23203742898791
-1.19677341731467
-1.18692058849364
-1.44499011170288
-1.42492545199565
-1.33907272632355
-1.68783108238925
-1.77854023430309
-1.63293199029927
-1.74715970847731
-1.76260975703329
-1.71116788256293
-1.75924306746387
-1.77802268462166
-1.84684340664219
-1.64249723719967
-1.90609441391835
-1.87324727992363
-1.74869490663392
-1.50274589808847
-1.48128997327035
-1.49739283504691
-1.21431095317521
-1.09198998873946
-1.35975068733004
-2.05420691565063
-1.16397107109584
-1.15371119829674
-1.43776895299626
-1.14937628759005
-0.999966756710905
-0.922749506925067
-1.07973527979683
-1.23768292786298
-1.30706537019897
-1.23755313175954
-1.01883891063301
-1.14453865166811
-1.10819944506944
-1.19290318855862
-1.32744530232177
-1.35305006245169
-1.35930233522733
-1.13094421304847
-1.10186342695961
-0.907808060632668
-1.04273187851372
-1.4179882311229
-1.46937196247286
-1.55375868624423
-1.15962160163572
-1.22767560976535
-1.3086083508061
-1.45599354343135
-1.30361455769496
-1.43284188043371
-1.20285131542362
-1.54484934859965
-1.67088970344877
-1.46415852005583
-1.74928441452257
-1.53922755501919
-1.71033740740826
-1.72284084743294
-1.72168696876118
-1.5818580952827
-1.75245158909736
-1.78330703371296
-1.70362885266677
-1.86772434955065
-1.82475281725532
-1.74544104801662
-1.56439592596183
-1.53635165314509
-1.47708369118728
-1.35155332430718
-1.33612266212501
-1.45544269368488
-1.24959312308574
-1.29168606967979
-0.996170171620276
-1.34002486140311
-0.868692556410684
-0.961901218211245
-0.843152470762714
-1.02630384972535
-1.05103481604212
-1.28747638354415
-1.27163883815668
-1.11826667043378
-1.21615088235109
-1.21957838873474
-1.11286493373814
-1.08152008795055
-1.00152691073477
-1.25713651324638
-1.26876439781903
-1.32968091162493
-1.28676868018787
-1.17329630942815
-1.42666013592953
-1.3586432138183
-0.84508182586706
-1.14038518199349
-1.01005930910489
-1.07445082829288
-1.01693320712107
-1.16442431450521
-1.11205352652678
-1.56808437998704
-1.5835393814497
-1.4411991456308
-1.07082491927579
-1.19803299447979
-1.33015682963275
-1.32626516994119
-1.16640461329412
-1.42842407308452
-1.5045738815945
-1.35201433988333
-1.49318984594115
-1.42201605601605
-1.33187161839359
-1.57496050781865
-1.46480693043838
-1.55851074468379
-1.57353598606257
-1.60928377790572
-1.71407560039614
-1.71792252535731
-1.78026683556963
-1.71348147457188
-1.74450933934153
-1.76231249348117
-1.84727739683352
-1.85119071340897
-1.85251795015625
-1.69843283944057
-1.74989208330794
-1.31818479904508
-1.12098087969237
-1.29128776396019
-1.35432062997975
-1.36406211287504
-1.16706512100933
-1.27842281520871
-1.19171302894829
-1.15391355467554
-1.31720110845034
-1.08732400914316
-1.37510059163961
-1.06193866001627
-1.06942366244998
-1.34663431621737
-0.856122653257639
-0.892230344766155
-0.881277154583868
-1.03838300919094
-0.715217488505976
-0.85641645384889
-0.860662779265919
-0.949701166341455
-0.850076151961678
-1.06081284543612
-1.09520846089171
-1.10696367750204
-1.01409297161058
-1.07739124181243
-1.1775839328239
-1.14890083295387
-1.01839482436398
-1.23957549794415
-1.18618992384603
-1.0862745399836
-1.09935564297086
-1.31632547285491
-1.27619622991945
-1.30661397870347
-1.10929511238085
-1.2140891842492
-1.14055720553769
-1.05767567793179
-1.06583641631086
-0.989314793118173
-1.03859717532152
-0.997295356030289
-1.18908079730944
-1.25681540853374
-1.53512429302644
-1.45890642720951
-1.31846334237125
-1.43004426194965
-1.40743786237951
-0.982321989874069
-1.33281248218039
-1.20458607821887
-1.29536230859863
-1.14313755180638
-1.25863470400707
-1.33823858477068
-1.48425523093008
-1.49231376567567
-1.35694490123619
-1.45049812554931
-1.42223897274235
-1.30237060973613
-1.35758553884461
-1.42899757147154
-1.47557674667486
-1.47645714369358
-1.30945725693799
-1.73427068859144
-1.77031799680303
-1.80500527886469
-1.74331635118104
-1.79496675685329
-1.84908478805184
-1.83664899510114
-1.71808258590017
-1.83663309082713
-1.76955754842325
-1.34258359459298
-1.28730224330238
-1.46099807705304
-1.49162758366553
-1.34443673198694
-1.39437752832228
-1.40376949377927
-1.37247619749193
-1.29669083856342
-1.23291557687701
-1.36076603007889
-1.44665121733013
-1.18380541849956
-1.36269902143695
-1.20793472721705
-1.05892560102856
-0.965449720643657
-1.57696429430219
-0.942718236933267
-1.29879354070337
-0.920917358766507
-0.962226805634082
-0.995557762940655
-1.06338579650812
-1.04236710771376
-0.914528483640163
-0.840176068382295
-0.735578987364807
-0.806425985832605
-0.998747456196235
-0.792544882439688
-0.965264749998976
-0.919493672289877
-0.987356357851271
-0.687356037573261
-1.06600029888839
-1.11300192761255
-1.12852230667263
-1.09234460436885
-1.24857410026431
-1.32429137192414
-1.08383218393179
-1.07556905789821
-1.37649372207756
-1.21383833685811
-1.11666140823556
-1.22321350153966
-1.14168273295232
-1.1701930820537
-1.16720526141437
-1.24730630558951
-1.37596353852578
-1.34265685319386
-1.40644195855314
-1.26082083692363
-1.38049677098334
-1.42916445973747
-1.33289969405728
-1.11813331345008
-1.09323785357011
-1.11209950230448
-0.98748694298552
-0.991624161596727
-1.02321519017126
-0.802733457805801
-1.00638076918115
-1.18854412658512
-1.10230904744025
-1.43864465002219
-1.4612468381723
-1.33037363567929
-1.46921098823258
-1.4944417099177
-1.20050506194744
-1.0951990815265
-1.12510650849522
-1.19345328253241
-1.33298308402099
-1.26949291768847
-1.20104193544555
-1.39581170865018
-1.26307944536781
-1.46584585365622
-1.37239684681629
-1.29689497896319
-1.49880776488678
-1.32580892060722
-1.28038849725404
-1.58618723062298
-1.43579161097125
-1.41759279789787
-1.59365533831617
-1.5745981836254
-1.65029437728609
-1.53402684966477
-1.64976625118669
-1.77656188988032
-1.71876487452527
-1.70025264928304
-1.79622935376769
-1.80857397996897
-1.81809132771654
-1.76072839772246
-1.76966096916486
-1.63510444423985
-1.75543159298046
-1.30552309389706
-1.36962043506015
-1.25511252199134
-1.47493156348885
-1.37537370947602
-1.37491293944858
-1.45696746934329
-1.2805930317212
-1.23064342419293
-1.21163542478397
-1.27813839005784
-1.29164304503824
-1.13499689009586
-1.42492415604133
-1.10257227839036
-0.959889503507673
-0.945173970032588
-1.0146843058187
-1.04248654883473
-1.58877112322671
-1.00161598135764
-1.46136272442538
-0.951903723317908
-0.853139888560793
-0.967321472336224
-1.04970735442301
-1.05578036144965
-1.00383561218215
-0.908198829767922
-0.692270304888242
-0.904031802838419
-0.751235664520006
-0.782534608596851
-0.814203268217431
-0.977403823086055
-0.916022877715734
-0.81094827968663
-0.89782421129221
-1.04394296732393
-0.818600431185347
-1.13621199787528
-1.05296495485098
-1.06308143482502
-1.12091805215907
-1.17419430555443
-1.09150351259279
-1.09246697409271
-1.15002799358974
-1.12878049688898
-1.02497874013685
-1.2001850842499
-1.18760046387427
-1.08627271608398
-1.35788288752891
-1.10793367704419
-1.2452703100719
-1.15906062096673
-1.199704280175
-1.07621558184079
-1.12739914927293
-1.35885221288413
-1.07114773409027
-1.24894993677624
-1.30013636318438
-1.22748831661354
-1.19196650659826
-1.34774315902556
-1.38643769484824
-1.26942609010655
-1.0342340637241
-1.07574258870172
-0.928102467381538
-0.85198887352724
-0.887179118232474
-0.918608882200087
-1.02687807591131
-1.08396631825798
-0.732927850060836
-0.886638067894457
-0.983496254402339
-0.85020416761767
-1.18603790749578
-1.04444986235082
-1.1071002654696
-1.16396205151016
-1.45524961116004
-1.18027803399868
-1.3782442103687
-1.54522597418383
-1.15782065464537
-1.47899863698779
-1.47408651991335
-1.42573072115732
-1.03414352087156
-1.17268700590926
-1.07033411755117
-1.21402447851874
-1.37939358328983
-1.22253715775208
-1.20096534284588
-1.37463537547033
-1.20654545948129
-1.42257583496138
-1.46911357870215
-1.36863799883678
-1.43441146320353
-1.24863395019622
-1.29126793673651
-1.10030703417359
-1.50741655823227
-1.52072279433481
-1.38582965284689
-1.44092248855585
-1.51722635151038
-1.26546889162879
-1.36333155409053
-1.39560611800385
-1.64956810644016
-1.54898121942161
-1.57735211057539
-1.61929026923061
-1.53525757892316
-1.55677962956903
-1.68831569168992
-1.72791261981361
-1.8117208998428
-1.7646214123979
-1.81276581890318
-1.85365825628334
-1.63125012701564
-1.74523719362896
-1.6454926172896
-1.77758870379133
-1.38734891001319
-1.12152301373279
-1.52822903800971
-1.18063032019425
-1.16851979692423
-1.16133125869174
-1.22951565625977
-1.33065477295256
-1.37884739247098
-1.57084604928367
-1.35130481966168
-1.26093324783729
-1.34174216838939
-1.3817192303591
-1.16712766833404
-1.22299010419641
-1.09989280854969
-1.17518116709739
-1.33010888898395
-1.27201944273823
-1.00179121709228
-1.06568768399746
-1.01399874816717
-0.967991499241977
-0.891660832760136
-0.936743212701107
-1.63334398721074
-0.900280952203311
-1.21608617580302
-0.849165033514997
-0.774022954074751
-0.865436223569315
-0.892459970165333
-0.99042755993161
-0.981766402846506
-0.966261380035784
-0.920433750736482
-1.05060175810965
-0.97469543508476
-0.9939133379816
-0.961984252820935
-0.825273037972115
-0.751775936430263
-0.771626169383077
-1.03815091732066
-0.913302762983966
-0.836741128617097
-0.9391192110125
-0.99571113428977
-0.763948618133679
-1.09202572110509
-1.00469512979553
-1.0794944146101
-1.09749845991645
-1.07296747744133
-1.10657404039138
-1.26963807011757
-1.11120129046575
-1.02790275813974
-1.17808004420658
-1.20912367682244
-1.14476564838627
-1.24390530922759
-1.01650753540644
-1.09453121918241
-1.12838766552325
-1.10250006553816
-1.13742897796112
-1.16870101128557
-1.17539883733226
-1.05875587843659
-1.34416378155893
-0.931540566333909
-1.042023636389
-1.27330510717831
-1.308386443854
-1.11737934354578
-1.24537345263528
-1.3780516573886
-1.52243409143062
-1.36507167960764
-1.34061380848764
-1.42507281017217
-1.02224427141142
-1.03606536415578
-1.08413049212303
-0.96732520323079
-1.00665248979218
-0.961107841057865
-1.02242506482904
-1.09286255155471
-1.0795837695999
-0.780047734192565
-0.815983100511104
-1.02576755158001
-0.870361882643138
-0.980346160736602
-0.749516575704601
-0.894126616546896
-1.11134245216064
-1.15435530351631
-1.25461101788173
-1.04905352301675
-1.24479493652482
-1.19709572825816
-1.56361109416695
-1.45094771523254
-1.49097374241084
-1.07647048907118
-1.13180987270714
-1.32545685365646
-1.19733628288895
-1.48880747975932
-1.46422792074682
-1.09776764947594
-1.20659158973043
-1.24911856229508
-1.1882339518225
-1.04884787707359
-1.30465036103937
-1.27252176427384
-1.18950254204577
-1.34799811303901
-1.31802184138
-1.34658968614604
-1.3462306969154
-1.40044007542697
-1.38359135357586
-1.2615399956879
-1.27301907167546
-1.37865600537159
-1.21938620396851
-1.3977277084771
-1.14870259472155
-1.46032255409976
-1.3721788639838
-1.21993037385592
-1.6184078373732
-1.26085418086805
-1.38335217907659
-1.65147413076095
-1.44610813899106
-1.23583461570243
-1.40850086633859
-1.45792644977651
-1.33349276778698
-1.55012495442539
-1.67837275541329
-1.70271863907996
-1.70140962968892
-1.8007163747703
-1.84412708081137
-1.55021198012087
-1.71507127747494
-1.75998866960586
-1.62752694885203
-1.71818284176945
-1.60554124469904
-1.78680670566519
-1.45915266001099
-1.44226425135964
-1.30223107012116
-1.182411722451
-1.23659179716213
-1.24762160772855
-1.42005645823552
-1.3830120308041
-1.15282267149868
-1.579649285379
-1.39249617711312
-1.39977629158974
-1.28945137199464
-1.17265522446461
-1.34677920206923
-1.31725547715216
-1.39746519363595
-1.29000761319403
-1.09379299475015
-1.01871147884256
-1.2812950721924
-1.26490336534546
-1.05348007290483
-1.16346258570015
-0.99040889193789
-1.08737664046139
-1.03572062701751
-0.93376318059076
-0.954910631704593
-1.0280519239234
-0.949327240994811
-0.964032128511268
-1.44199844303966
-0.95227898649468
-1.03029128133756
-1.16436970255626
-1.32346918497028
-0.764044518644811
-0.846547456100778
-0.838224183072693
-1.03107233350749
-0.978403273388791
-1.06846240065985
-1.00878641448407
-1.06953125118315
-1.0058937501634
-0.989585480374467
-0.994354212618021
-1.04051216317237
-0.974466334996972
-1.01367903345194
-0.979298263371549
-0.837045296858643
-0.771441787763238
-1.01246873316711
-0.986187974172906
-0.792062573218691
-0.942903455666933
-0.993906002128672
-0.791567651097597
-1.08756993988289
-1.08329741500094
-1.02928742319199
-1.09348097906604
-1.10581478977303
-1.26628115805816
-1.18380857750035
-1.1596064534954
-1.30390459119135
-1.21508028958807
-1.147332210925
-1.19259967634636
-1.09904895459761
-0.931018607194851
-1.07329102205727
-1.06962705464997
-1.22696883827166
-1.23313250092432
-1.32955088304952
-1.22282001489237
-1.05110473789158
-1.087349841561
-1.19256555944168
-1.15286695403312
-1.23222104807192
-1.09907544858904
-1.24435710773048
-1.16511331378535
-1.24379074520083
-1.48452323979384
-1.37428848313353
-1.22759296505872
-1.24878175920653
-1.4374967997015
-1.33285015789419
-1.08463679776624
-1.21043203230399
-1.2933203038747
-1.41211430999062
-1.23585287340557
-1.35932392032567
-0.967944149389868
-1.15682279347546
-0.911877346432288
-1.07117210013888
-0.976052824601541
-0.985334182225635
-1.00260026239158
-1.05672382059381
-1.00499138501795
-1.01936251738126
-1.22669546744267
-0.780439980083284
-0.822670194501738
-0.761441278473098
-1.00148052485284
-0.955483514392371
-0.934842248991561
-0.857600337930338
-1.00838821818109
-1.13033561870425
-1.19881751155417
-1.04501885509127
-1.1247350235925
-1.10588565874071
-1.20526670639782
-1.20215975887839
-1.16917257658585
-1.54253023700776
-1.46708886253434
-1.30235210326007
-1.33959626873424
-1.3366450199345
-1.20341603455389
-1.31307954827503
-1.49516008805687
-1.35133578915482
-1.39063687028492
-0.935127590808486
-1.09299639835834
-1.11589105307269
-1.30282330968189
-1.25903008851362
-1.13451924257189
-1.09345411763633
-1.39242994651531
-1.22829253399343
-1.12897669335866
-1.1251766403645
-1.35123258350333
-1.52964617559576
-1.22296369229018
-1.32839577266378
-1.28804328563288
-1.3499375328104
-1.4247832274814
-1.26659945000408
-1.39154266270485
-1.32329349865091
-1.36278683923877
-1.51712333407221
-1.24495084432437
-1.24567514874461
-1.40738246792808
-1.42942245333667
-1.27731180412132
-1.35279576928508
-1.25432529012959
-1.52612870808814
-1.4397309798013
-1.65503729736381
-1.44581950292859
-1.55754084880501
-1.58505726788783
-1.67673972135369
-1.68503000701038
-1.67844377915777
-1.79377952864997
-1.71872163052471
-1.59771820346809
-1.77612535057979
-1.77265205195946
-1.69051971173481
-1.58740803959123
-1.69989076390856
-1.61523144769264
-1.54181155120845
-1.79274078865909
-1.55592020112092
-1.57357905345049
-1.6178580926701
-1.3547939632336
-1.37835532480722
-1.33902351289651
-1.31726806888415
-1.46009247111874
-1.4684483024083
-1.34418301308893
-1.38503379966893
-1.40636036345657
-1.31521003333933
-1.21364731507942
-1.18709427608046
-1.45324090522667
-1.40467623578291
-1.22819304251809
-1.12759721958422
-1.06517006608658
-1.01834082678851
-1.27515573575244
-1.09268045942141
-1.02485943159216
-1.02692896201466
-1.02699245986253
-1.00162177158712
-0.969339448223175
-0.987419610620551
-1.01373435798101
-0.870758756773489
-0.871275630795604
-0.882904843609866
-0.977399065953658
-0.970446499580842
-1.45787743291401
-1.58274455991195
-1.01275931451504
-0.856723086777946
-1.06818601922358
-1.75532481606728
-1.06243357582558
-0.814508227009635
-0.867875608273564
-1.01832140883944
-0.857625810440799
-0.986672077298308
-0.983188967705994
-1.0582438263953
-1.030208970712
-1.0649392658621
-1.0437303918527
-1.0453486095259
-1.0416706494246
-1.04477773166639
-1.14555888769011
-0.952348206844741
-1.05364756521835
-0.925682003513398
-1.01549176888572
-0.996174287203725
-1.01309273889673
-1.03057821203136
-0.959120901290454
-1.12850366687288
-1.08462551665237
-1.05089380816926
-0.986579783300584
-1.08645567528425
-1.0958711917193
-1.21760386415797
-1.3396897749393
-1.172161461963
-1.20092170304305
-1.17126259349763
-1.20258351089452
-1.13695934549292
-1.08699636070499
-1.22949821229647
-1.1772216730272
-1.07267891331312
-1.13795957450737
-1.02491199847724
-1.27279684586183
-1.31850624043928
-1.10859779253019
-1.04102477934999
-1.13684998238756
-1.1153046010493
-1.23794687651975
-1.2805891149369
-1.28397697107993
-1.08603807391842
-1.21451694429485
-1.12552138976648
-1.16340215037061
-1.41822624792833
-1.41665953399764
-1.32533615047754
-1.38829682638855
-1.44088791831577
-1.19863421252224
-1.21964300066115
-1.2768747769893
-1.42376872399243
-1.28759889873447
-1.32083711683764
-1.27607125007378
-1.20164073652124
-1.4305610155473
-1.14301815195723
-1.02746707793288
-0.777942423282458
-0.935228506847378
-1.04342396210407
-1.05736717753727
-0.976266278530413
-0.977562240327911
-0.987690494791472
-1.03068263957474
-1.11750879677202
-1.07770159941033
-0.974713777935473
-1.13102915121332
-1.09209616953532
-0.781209950698339
-0.77586802329354
-0.993875819238656
-0.997054314599082
-0.992230320483244
-0.958035326453708
-0.988697243992661
-0.841052215172773
-0.842442897888691
-1.08826611448161
-1.21441919105162
-1.16278132086039
-1.08023603834449
-1.01770379993394
-1.13980552648614
-1.1706466872419
-1.18682049725132
-1.0128423489216
-1.16581517340706
-1.51561787432217
-1.41335985884787
-1.22878577685686
-1.21679716370633
-1.37113476746381
-1.15988569832918
-1.24793629643793
-1.16758601512836
-1.37514604594103
-1.40529026548058
-1.30077142441912
-1.35655345949481
-1.5476167855592
-1.05947354567516
-1.03491484034291
-1.11102289033178
-1.09482464989078
-1.18401922587443
-1.12749907073679
-1.17495544097951
-1.39774543794676
-1.35172721379303
-1.04935090149886
-1.34498974311933
-1.3157000549872
-0.989573098749894
-1.33187430387245
-1.18787594032073
-1.00153841145012
-1.12826923428621
-1.42086618712148
-1.37561992814217
-1.10951312826167
-1.13180355754116
-1.34335294138452
-1.20779565387458
-1.12198209939577
-1.23056678142871
-1.45837548474599
-1.41647343107694
-1.44554298768384
-1.27367234177971
-1.47374299589746
-1.51474168387224
-1.32291916724227
-1.46952373348334
-1.43368796410649
-1.41998193697632
-1.1687682286604
-1.40802480900988
-1.46158279525846
-1.53244232386744
-1.32379358678107
-1.56674252207555
-1.54159706453445
-1.62800554183366
-1.40339872031739
-1.39722880085548
-1.38310638077706
-1.69365460221202
-1.6295908675113
-1.67985768966539
-1.79824122374675
-1.55127763971422
-1.69016420517307
-1.72014080400667
-1.64427478452061
-1.61333242282137
-1.72943491184175
-1.63579553490307
-1.5175310025885
-1.78198471330403
-1.87106036720578
-1.72525030963303
-1.69585325132795
-1.49841752838982
-1.41246180426953
-1.30463359126779
-1.27431862698338
-1.47226452090041
-1.36153793697542
-1.44163928819398
-1.38474143006414
-1.38097551744309
-1.37078287801859
-1.15772961487551
-1.27922070525564
-1.28108167105589
-1.46118565900036
-1.43622028555222
-1.10110312521206
-1.12039692599974
-1.23137757647303
-1.01217009644767
-1.08909386642337
-1.3600740090986
-1.04747373549653
-0.997551418179583
-1.01443911939193
-0.999533521155828
-1.03110580022641
-1.0005946506158
-1.05057868897884
-1.00624384069265
-1.0146151912682
-0.896356738980007
-0.929563035213581
-0.918737342500548
-1.04503976435607
-0.974761114065084
-0.983184311277606
-1.60334402704058
-1.73548664304174
-1.55207719812833
-0.902639447303355
-0.788349890530147
-0.877516448427953
-0.92244536403392
-1.02493922090309
-0.829627388069802
-0.881778931784928
-0.83040278563358
-1.02680528436288
-1.04585392706953
-1.08807568755524
-1.0103305195855
-1.05926671546042
-1.02792368541145
-1.07087458704203
-1.07119885703431
-1.10692583597391
-1.06521101985865
-1.06004287018023
-1.05831264989
-1.01970884409701
-1.05372863581924
-1.01710209447964
-1.05721823773413
-1.02756597004225
-0.997425022077479
-1.08371379720088
-0.966648781325173
-1.00547326659335
-0.994388851837605
-1.11908011963022
-1.12377773887782
-1.12550081824003
-1.20009658331826
-1.20724736769808
-1.15111372883824
-0.967028989122317
-1.17765726892811
-1.17962813668593
-1.21385684214677
-1.22317120424396
-1.11502978888991
-1.19442384776232
-1.07796801885309
-1.09047405654004
-1.08640404266212
-1.06406073732082
-1.25952877076192
-1.34078860358784
-1.28742836994999
-1.20089842180723
-1.04438349963564
-1.17232727134373
-1.2092475025925
-1.10355649998818
-1.08450112545256
-1.25501012228285
-1.17084779264099
-1.08832304807196
-1.11164104755857
-1.27349118371674
-1.48189059863109
-1.31320948726273
-1.07020732237149
-1.22338233833341
-1.19868452165662
-1.26818627362637
-1.28553152073823
-1.29516899411484
-1.25356689063172
-1.21546648472591
-1.20414368791974
-1.36981527839999
-1.41076554490135
-1.13669586184171
-1.41135381024887
-1.02962556019193
-1.0414927888462
-1.03939909221194
-0.904545220014234
-0.921754694101682
-1.02230686060413
-1.05969739407099
-1.05379779569724
-1.05379943752029
-1.05215871301768
-1.05185898694407
-1.08083242789234
-0.932565034462984
-1.02939632395889
-1.08171079184445
-1.09836371325952
-1.12182833954268
-0.776634640998749
-1.02263174225788
-0.989357978549759
-1.03233165841302
-0.982007828162822
-1.07386095602369
-0.832001879626723
-1.15712577813473
-1.08527121308853
-1.13353935556353
-1.32139146314516
-1.13902186876326
-0.979759843158017
-1.13453313114488
-1.24694143234964
-0.987407727438787
-1.09866174804306
-1.26701115330675
-1.26285460028959
-1.15800106600501
-1.22515728620932
-1.38512744596019
-1.47781822802598
-1.41535478183867
-1.33467834503721
-1.19957030026563
-1.08990406545615
-0.876354810037522
-1.00725325274327
-1.13545617931739
-1.15190121309472
-1.23271900877885
-1.18182876667081
-1.18778914605633
-1.18577259251624
-1.16680285841603
-1.04812887239276
-1.17074407717732
-1.2363654089967
-0.958245823944474
-1.10641514225704
-1.4234324072643
-1.28785033825251
-1.13191508632862
-1.24241267626819
-1.4355075338674
-1.19039355515235
-1.00155137500718
-1.28913159441923
-1.41158476238525
-1.35699469494552
-1.19752684777221
-1.23191428466923
-1.43390433350813
-1.32253780948492
-1.29448743471091
-1.33453808866612
-1.47367177739082
-1.32335213780559
-1.20743171589289
-1.51647853469592
-1.38419554878643
-1.37022357351257
-1.38075091783439
-1.25403801015851
-1.44687501341499
-1.28934950944555
-1.35863615350338
-1.3333990456559
-1.31697777745509
-1.27681008034221
-1.29476164064686
-1.27545892419892
-1.56328513443022
-1.58881491020075
-1.41453398119132
-1.32704436111304
-1.48401950363896
-1.46096377600454
-1.59364047844641
-1.62192138869383
-1.61782997787195
-1.74918732739153
-1.48700108950541
-1.70531596619942
-1.61620910327505
-1.62339508360178
-1.57954962962529
-1.77924105633597
-1.67310986159525
-1.64048993476129
-1.35814103640115
-1.45871082214352
-1.38278282893395
-1.46566449073997
-1.2325518201623
-1.52497874848802
-1.5250191454413
-1.19573109135505
-1.41673092815873
-1.42453338405017
-1.52003206827259
-1.39632674142983
-1.40897904876712
-1.45804633015614
-1.28386854972838
-1.43816550186493
-1.22653104237841
-1.30960748893473
-1.23926064389093
-1.01808784696711
-1.27348866209049
-1.21690624858913
-1.0979292409588
-1.08409549147265
-1.11571378757341
-0.969331976254058
-0.993625554438838
-0.900011188361886
-0.993484044226989
-1.04345960033337
-1.05684978801789
-0.966560943742951
-0.973967600938462
-1.01987341441813
-0.945967670809386
-0.909322609378825
-1.04203728874713
-1.03199716246201
-0.947696450659226
-0.931808834967455
-1.01245574592238
-0.954203226492489
-1.58952324922768
-0.916795071602017
-0.883601648900606
-0.814435946622761
-0.93014945434476
-0.869001015922935
-1.02771127846999
-1.06346301861755
-0.823102403958167
-1.08935391815549
-1.04021475383162
-1.08565113579366
-1.07550430059695
-1.05596114064564
-1.04570888907981
-1.0299511650742
-1.00467691473053
-1.03837074082439
-1.04692375573655
-1.07021997250051
-1.11289774748907
-1.07218318771574
-1.04093050926173
-1.09954849983121
-1.03130002047809
-1.05429387860066
-1.01349694776584
-1.040322327369
-1.1033132302193
-1.1652907074094
-0.968291584668391
-1.01453884647088
-1.10237757753674
-1.13254114406515
-1.05279286510448
-1.12527503189584
-1.13996300624437
-1.09810111454622
-1.01196925797644
-1.13010834231972
-1.06918112181724
-1.33999510343019
-1.26924213067057
-1.26659807453079
-1.27464768818396
-1.11522935660593
-1.24489118173411
-1.16940195913326
-1.28630798118708
-1.10663889349681
-1.21583227851489
-1.18853806426709
-1.37554294534791
-1.20908403945544
-1.13709434008226
-1.04600434997056
-1.02227537807986
-1.12428064820217
-1.12856383981159
-1.30788038220351
-1.34782337567057
-1.31686787680166
-1.2272129156302
-1.23710558387439
-1.12461773386661
-0.9895308440014
-1.33878890392564
-1.19394558765208
-1.25143084032902
-1.13667661438212
-1.15065259999838
-1.01747757479391
-0.987098447368209
-1.28388181387783
-1.09228281506823
-0.890096362492821
-1.3313027955011
-1.00523860007542
-1.28248342095596
-1.23030062262723
-1.30431894176029
-1.31164063163359
-1.50436465466513
-1.36208653390601
-1.21949701564015
-1.30336028190853
-1.28335636333975
-1.23654209835844
-1.2129936897421
-1.2548532228117
-1.37838867249703
-1.03946298887852
-1.06014686614959
-1.00985536853457
-0.901959352306294
-0.900379224358122
-0.916650186945695
-0.959769654815897
-1.01100728538754
-0.980396594304017
-1.05158736057832
-1.0628409077038
-1.04885086144605
-1.11180066463415
-1.01608821516967
-1.03467252681905
-1.11622082276958
-1.12257827763873
-1.05232709566311
-1.02992937033151
-1.22004461023168
-1.07661571298609
-1.09642712894142
-1.02556200103191
-0.83200310703316
-1.12785929146887
-1.21455064403716
-1.18051894940007
-1.10565223113153
-1.19146291118869
-1.17421555771279
-1.21535740113371
-1.14038274691758
-1.05061081211951
-1.16124033834038
-1.27405826010692
-1.27601964171803
-1.223902041648
-1.05687851238127
-1.35700020357006
-1.34822406953977
-1.29060274479985
-1.48941773864815
-1.46125961231761
-1.22741378344024
-1.28121853558131
-0.989239756156263
-0.937560857229449
-0.969588061154703
-1.08415475504864
-1.09390330626023
-1.17705244398604
-1.16096931278741
-1.05336957727861
-1.26434259678361
-1.12107511665956
-1.22743349213859
-1.25550936748236
-1.22782644154997
-1.32169929313669
-1.03679601559792
-1.09905829618607
-1.11327179546466
-1.19519003814915
-1.19067537101449
-1.28919174042687
-1.30007745060082
-1.15786459107414
-1.34926166076004
-1.30587140997201
-1.34453149644563
-1.18420234394174
-0.955467994992476
-1.19947864089396
-1.21770653322586
-0.997825070212286
-1.11286681822205
-1.11803169496997
-1.33593986731929
-1.45840750355699
-1.29571418513143
-1.23923491226922
-1.27017114981885
-1.36854687398283
-1.07601477674395
-1.39111830471426
-1.29091164569391
-1.32884045624435
-1.32821158926533
-1.36614076724678
-1.27066557660889
-1.38586370025885
-0.936573658010835
-1.39455880430891
-1.32368124027524
-1.4415541509085
-1.34883817619637
-1.23631415991009
-1.50675631808981
-1.53773650153127