/*--------------------------------*- C++ -*----------------------------------*\
| =========                 |                                                 |
| \\      /  F ield         | OpenFOAM: The Open Source CFD Toolbox           |
|  \\    /   O peration     | Version:  2312                                  |
|   \\  /    A nd           | Website:  www.openfoam.com                      |
|    \\/     M anipulation  |                                                 |
\*---------------------------------------------------------------------------*/
FoamFile
{
    version     2.0;
    format      ascii;
    arch        "LSB;label=32;scalar=64";
    class       volScalarField;
    location    "2000";
    object      epsilon;
}
// * * * * * * * * * * * * * * * * * * * * * * * * * * * * * * * * * * * * * //

dimensions      [0 2 -3 0 0 0 0];

internalField   nonuniform List<scalar> 
110266
(
633923.934336461
1223606.84061379
577272.768447947
574143.375955601
981468.90553485
457473.163885985
1629238.25649414
572626.056144201
351804.357233171
458559.603461911
666666.877863235
1177822.47706119
424415.177308115
315887.723988118
359434.673020375
1471114.5892604
510388.068259468
629734.33380975
538221.82564694
348969.200626568
305754.175938723
303502.287178956
328365.475729802
646463.004242075
366446.528541316
1434069.88933591
779173.922170685
494869.789491048
325628.986738543
295642.072865969
293537.391091967
283220.960691626
310672.012696881
1588115.49760396
482674.339328973
323275.974526876
375135.017522696
696421.055876799
678479.748290902
1111828.67736977
609185.441596115
337235.679812827
280896.525404642
297114.345898964
276550.495216081
283784.981681362
318541.150541393
1343279.20986789
652949.219769977
501892.651309502
309658.677766544
339499.264477232
368573.445609058
1393984.41562418
558857.767523775
1259201.76696617
522070.774387425
462611.41199827
314766.389784017
275163.15181889
268180.788870997
275820.741309732
265973.753873227
267926.4368993
271221.751980041
286705.760875326
1395593.82115502
1738235.72214464
513076.434733858
782768.082158304
353919.671878309
299172.769365505
279238.788580719
310748.841226829
325154.937092364
1056510.93573767
749388.412327388
1507889.68752372
634744.329935308
367786.827512162
484780.674115485
328424.060384188
289732.995098724
265376.461730905
265492.612792985
260125.338562223
263082.270405112
259982.900037432
289061.123718956
278277.241538483
658137.59773269
934504.085472231
598321.161736125
374645.138539294
685398.455030186
332594.112425439
340011.507533174
272243.243995576
300768.825818593
268787.372835666
302726.37543518
277878.860483898
336165.662869159
1679443.74563669
475357.64745443
640373.039517025
1381720.06033695
382901.467600329
608219.650452662
302358.458750942
284687.286348503
269861.524137893
257383.059852498
263200.479035289
253459.259620409
251679.290258063
249508.786999732
262855.752873579
280484.36823913
275493.633992999
1346277.06692618
499827.066421472
615334.532144904
343857.131487002
382437.77623364
1322062.87497012
555597.714202475
332644.629066125
314462.085555031
262409.175104788
308822.363104246
279424.223328686
257334.382836733
268207.469992033
314339.287829748
261972.047687573
301751.433206119
725863.269601287
462031.178040469
478533.388843666
1577371.95005922
498272.821741847
371891.368594516
329720.29770417
455942.176597995
291830.744456335
274325.360473356
249155.371714163
250971.55933469
248143.367724417
245470.732898662
244119.827300005
253526.348985264
272069.17157722
265085.440777529
525758.413959055
1287834.61681043
1093904.55230055
531951.873210283
339099.713593326
360135.382873444
338331.327013078
649324.526697234
352194.417103723
276506.875351381
257400.119042467
266660.902501692
248327.917025872
284887.389856037
247910.388810486
263802.110380325
267203.91719538
288317.007805543
340677.622660304
257147.301763335
335443.159503167
280058.122677017
1751370.15518109
461115.456108214
478183.43045924
1040039.56042115
659397.978139681
326875.97551797
310812.952737406
534709.301847304
280199.865856332
262837.340540374
243789.679811733
242709.851182224
242716.38291587
244063.055608848
241770.467933682
240971.810765469
243704.849233359
247068.327542465
254914.320393159
728840.376224383
691930.738965765
306726.182060192
321490.460962483
483242.302727733
319733.078231421
340055.904310154
971532.416104791
529004.595817603
343040.155412171
275023.063766822
266944.672736796
244734.116166944
254775.05281282
246342.614381119
241992.385283434
279369.933046357
282958.939252164
247271.195516547
261559.159648785
266895.981986854
258856.339072147
273559.544753267
299748.043733181
324205.722997789
299017.472896095
271153.817627332
620643.018201744
667166.433103849
657776.236405982
344354.453857349
378457.886677002
967655.258579182
1145922.87272198
311206.950258241
294167.177151958
452358.553341179
275349.645310923
256086.981767586
261978.530930833
243954.784339822
239774.140960708
237996.553127871
236484.268815729
235897.548308651
242046.771220616
235905.045000007
243869.307293986
246906.401175919
1537966.8139788
1121676.47885703
744696.060422225
291663.717714087
288519.099062772
312267.380642935
319121.150588888
621664.37724883
468171.981569233
294698.303186443
365750.925080041
1198498.79230612
625919.683595654
325978.1837817
278413.038644739
263138.682740614
239826.253021128
263449.769466054
245098.757615964
241672.424806547
236908.96342363
242971.702180234
245396.590216441
261625.250456079
265732.986262141
293694.475842379
247684.994120871
267899.025735887
292710.943360245
295797.000765398
274072.203793983
263911.596066106
1146059.03680352
1434156.7402377
611377.409126935
693818.658144906
332421.460496114
367403.630689697
471887.199260162
1442457.58176493
574651.140836948
322387.480106677
291348.913140772
373029.309063379
422541.303552063
271671.481838034
251904.553631344
253940.974025999
241655.964322032
235392.934870055
238476.911086049
234120.178410639
234227.114950916
229632.661145635
231985.944796966
240058.752869417
240938.934545967
1141615.54209069
1035777.77392512
1503477.50107612
277162.869018071
318462.680492254
318976.736514161
343042.25577885
282492.657239191
1546618.48465807
585055.72718762
629915.484730837
367066.948472106
1635009.86615413
469417.378617073
350902.910748894
259586.175485388
255343.619713286
235343.869846017
235312.397937517
252582.242718034
238423.110869307
245697.192566792
238912.482683725
237941.385701769
231968.311057472
238169.201554711
238924.490201214
246143.018759579
251222.926814258
287123.243629451
256033.26319659
258771.245085164
245020.91340856
249884.614630616
273030.468851255
283214.941427322
292145.992333489
275670.408114683
253226.530898003
1329654.47061021
637765.263274902
1197453.12466706
1319759.47033717
523573.160212745
350692.928202351
358055.672043853
446449.771272814
597754.908050974
643700.720805561
727483.213956747
306030.181243405
288989.711219784
420576.557978401
659313.251980975
261755.595757928
246121.467776687
254048.743250808
250043.725118131
232145.396462349
235336.504529373
232417.849907729
231727.539124548
229173.779360223
229674.762644796
227920.412536965
231092.010548603
228701.093540527
234927.252602319
237422.613677059
242695.775972415
654591.284999965
263613.103485714
297240.479335969
351347.882146636
326791.062002187
264641.398231283
288767.259810203
681131.9033411
1058564.46955538
486217.210927301
1327763.65454878
443462.215662251
662111.863023379
459735.962331415
304038.665837377
253139.799321336
251876.827410286
231652.092385219
235026.842072044
232294.311392221
235582.85618716
236530.246504392
239078.044517822
246178.417031685
236053.593371337
231481.496754657
228672.040552879
229803.576761749
236871.923487754
239443.910977883
245848.90959699
247440.498189721
250169.565917193
251545.748315772
255681.44260369
257428.335809076
245233.519653163
246364.36085463
261609.16520653
290145.14859338
265392.599898556
289768.390499055
269534.618625291
327732.597017897
265131.765322931
250801.771713398
602256.704143006
671194.110671362
497107.176390712
330312.482986291
339095.727432808
482617.23903859
653303.72671426
1459931.39885678
1641212.11213853
291617.121226938
336349.098555052
270118.490151168
504098.052988866
564277.5236547
261449.343726523
240782.507517644
248330.03153667
229660.37995998
232623.996257859
230679.266182633
229160.162555008
227102.464816561
228213.796030469
228594.378367426
227100.081180096
226346.36305214
229722.346581445
226223.25945819
231642.670848657
233153.65790745
238860.302162735
1449337.30880472
255728.365445731
272426.677196502
280556.362545004
349091.03888161
357615.040246856
333591.492241546
257142.277255437
259736.298688968
292488.515565341
272421.624525032
456616.46643632
1273327.89283448
502110.462444371
639446.093790588
473191.426979672
649368.777864425
492757.740124764
304253.799096917
282653.852843077
251379.443681841
231512.296318706
233056.979728682
232609.744339881
235376.223905336
237901.548297249
230524.461570539
225996.050660651
226679.876181907
232991.917262287
232728.379600323
235929.759013117
237722.590103188
239652.211430953
245927.330961773
242281.188025005
249539.529472455
250750.399486913
267025.766547708
242210.508460539
246178.211313236
239715.695466756
259000.00176125
275732.694084949
296710.419940024
266236.650558492
267549.862036423
316500.853656449
273954.166972734
262308.671901527
254901.277308848
248645.849455156
247739.588349354
891067.225366606
1375076.99134609
686250.276932853
322904.876536702
369703.358387016
363901.458830773
610760.778840985
1628209.91627393
1083921.25513458
274503.0633609
297611.851681343
342038.848132646
262859.224087083
441391.854516388
459759.891859199
254251.692404167
239007.958167621
242353.312921487
227539.727084262
230709.25777994
227864.471074252
225956.054920045
224850.829757433
225704.387053772
224769.240233325
225964.171583464
223861.028744331
226756.737406797
223695.974258637
229535.853381056
231521.725420137
232685.093797401
677543.720942215
699903.368780132
247772.449380909
276296.40443278
278000.043620601
309933.897002885
310425.548496598
376626.877735631
308890.676267431
374505.843945178
251286.23330671
252043.847465745
248111.495361025
270604.136857241
274699.115345261
331549.976693888
483430.442422105
630371.889807225
601706.254604579
1418982.9281996
596685.313815953
1642192.17362884
356498.425962722
289020.969672488
242334.639337056
228174.465844031
230298.696269879
231271.216262842
235171.892211111
232413.867000827
235654.530295088
239559.070861636
228106.681991962
225741.817766075
225380.044872904
225095.872858251
230166.976620115
229063.144246617
233881.496351308
232434.157620874
234872.61533798
236732.558536601
238639.351847225
251649.224885028
239592.877400718
258219.58674399
246507.380003183
237881.010964017
239551.278748962
242529.185127582
232910.788789744
241862.140978532
262665.188824258
293392.43669085
272398.725926012
287876.948082014
318770.914296518
261792.84220641
271337.778472267
327804.483222448
271392.998265657
262613.541489471
243038.106684747
242174.581819365
1477644.5340269
618285.665470195
1415758.14556618
476538.627444036
338109.116494641
386325.377139502
340397.09231037
367716.396674791
464790.30495118
583686.885144717
609644.630028648
271953.015301304
287111.579147082
315158.132632958
383421.147139968
262991.257061119
469340.719928261
703532.381675278
246779.30328508
234976.104531409
240152.711286281
227767.543702702
225320.736858652
224484.720296182
223893.040784457
222735.87073841
226066.365971152
223903.588411129
222448.536483498
223052.908235952
223936.301670385
221542.997172084
225144.821574373
227056.61125446
221643.339884042
223062.197102726
229579.960827178
231913.417690198
527663.397170122
1329811.34227811
274100.353929491
258127.005342479
314315.168897232
287331.97577467
322880.145536285
316281.450192898
467792.352072254
356916.809847195
241643.535190645
259894.969091966
242269.36096602
245875.634489865
243016.158143645
255589.100074372
266402.889259063
271911.012533994
334958.030376897
616968.972788107
599234.069294187
888089.303202534
466486.041296609
519948.932636127
1043046.39875801
338560.559148373
377980.583615849
283478.029075334
239477.991102975
226161.919231119
227238.714129863
228516.202605038
237095.191785583
229537.025587957
232955.572882597
228427.680766831
233611.059536521
237753.052526333
227491.491269535
222531.566149313
224236.390690005
223604.4316665
228948.199936836
226405.018115059
230032.120842699
229886.34664255
232496.436621376
228567.4092903
230916.666045197
231139.769157153
231862.11069118
239951.465924857
244015.42834649
236432.002232904
274470.35934658
251832.433024903
243497.70606157
236943.67232562
231501.659385715
239105.815625894
250882.4133516
310044.224174273
298222.992829382
290067.540546154
253405.912398994
291674.760437174
269824.033493071
265998.444389368
358099.939258376
257945.972079349
302365.59886083
253243.211742165
237679.584649004
240102.990396862
593065.004538595
1593470.89110495
609455.376650514
479520.390665736
574045.413372454
381583.243359997
359235.973665953
326173.416313276
486735.106832842
1630924.11616012
1393706.64334881
504278.999166211
294494.948859569
344758.187309494
254825.746234457
608159.941842635
1314861.31630726
246594.665554169
235419.645094787
225902.177148472
225315.478426022
223817.876982764
222992.350753592
221755.829563593
224522.129395672
221685.816453821
222090.852501586
221006.624128024
220634.335786116
222718.070143147
220544.737109546
222491.501917127
221280.00550263
220424.626985707
224497.080336236
220687.252897497
221673.200684987
226273.015495312
577259.095447426
647572.517983177
258129.769647637
252929.960102581
317814.737669711
272777.7912298
285767.311870568
326903.336638008
327281.521634278
293526.678173942
323298.225547072
455533.603190663
234832.471073549
241341.698842439
255822.003180124
240672.418751664
234634.474445581
245824.580027359
247619.372307006
256960.519145357
266329.024864502
262948.259498729
309785.380862715
1482622.5020765
1497462.93843657
1344009.50953683
381829.262472035
585129.356309706
380746.157647547
378360.911905741
273456.560645285
234351.689663414
223913.157625101
225698.0014893
225678.501741287
226862.295731337
226525.284073775
235063.417970416
229233.98428425
229872.323620051
226567.558496347
226003.819700185
233996.318149745
234170.201235537
236136.133537569
224353.793476115
225142.578469375
223119.406047257
221466.66431571
222923.558673957
224611.363497752
227230.167879535
226475.213235047
228841.900612409
227199.044384713
226288.877151413
230744.356228733
228880.011520959
230241.899585758
235808.356723762
242332.553384483
236292.74568679
244667.749336914
284562.845480232
246769.287380112
233529.670498804
228104.91441623
236952.579710581
248934.802231442
313479.177986468
279855.430226576
306632.129392455
280447.757814187
250048.437171135
283832.032065153
294362.510995508
259505.153479545
259079.293286307
320113.032942064
260749.507187431
306655.158234129
250667.27087493
243333.641569761
235490.731055608
238115.130673125
975300.00092807
607963.11767648
1157124.00177271
608002.507967534
484268.153518392
353495.795931217
303153.048042874
348837.617267617
625454.067381864
596984.374028007
655575.005409437
677148.135656765
295807.364487985
356544.923340142
456342.627401426
601482.025086595
241999.585759444
222934.342602529
220805.244967242
220898.882028525
219750.976580603
222300.284048697
220627.348406843
218667.979501806
220845.879423924
218592.817617724
219264.191041474
219894.418876609
219159.662532127
222153.482886532
219948.557230929
218712.072672304
223623.397211346
222754.83056376
218274.956617245
220350.916927524
226150.7515403
223769.92172645
1290045.04646488
461114.918540904
1397015.05787461
262805.255673946
253082.166188993
289709.131377687
271087.482521737
290432.601220789
297684.483741323
339303.996986975
274613.575136552
389378.378087907
299033.810357395
559798.098542485
557734.506191555
230269.906646852
238201.343963834
233421.40271624
243182.398465215
231558.141857321
247772.140096078
238134.440225198
245911.65421802
261434.916244228
256341.985847441
312186.372213834
501927.402576388
662006.992680959
616985.99050632
442584.494274887
1418571.94192395
315248.661243315
468270.965076577
271096.800073837
228332.040740376
223713.81362506
223839.650387794
223775.263831056
225593.680102236
226525.20196698
224283.590616356
223234.635570188
224881.32522312
231249.660301979
229526.473783842
231176.316996687
222403.898225209
223062.554730841
221451.419951223
219125.166106729
221364.147713488
222402.903381956
222562.503414888
224764.131244948
225620.960194063
226030.281894827
228629.339377543
224880.909763022
224751.73603055
228498.778810318
227419.743129588
228207.125769454
228146.326907431
230135.954449928
240209.332105582
229560.260777373
246051.038947054
276092.961953016
242037.786506147
249486.568086767
230565.306047997
226973.247278313
224973.445994527
232314.36487441
258648.664307913
274562.462621546
289637.291507704
300661.438334416
286381.24797164
244227.223488314
285710.985117906
304966.651825047
251997.36219599
264614.970378538
267040.21441022
324668.265653491
253417.245485792
338224.881510607
249371.5361941
243042.82540326
234946.762153143
231892.309363421
230765.473509938
991602.124869505
998994.204129178
1331833.00711542
570489.444244907
637753.938736971
506258.473947804
300362.976855939
341440.517689661
494209.273550369
707245.393599831
561008.042419011
1456229.33906514
498395.824290837
318053.897916215
434521.183057615
1062918.9609896
238117.970053826
243326.022047715
221214.783337979
219677.755545822
220115.755133596
219687.927784204
218318.604863462
219078.132252879
222288.430114708
218102.905856023
218816.388714687
216892.597897065
221188.305936609
218849.341041703
217718.959390978
218027.416950215
218309.65532326
218358.175118219
221100.693495235
218612.821137033
217103.865404307
221268.948768883
218766.973454724
216965.185339715
225483.943783805
221730.998024327
591517.042794017
581106.657030683
255950.932545901
265019.000543181
240509.245588941
261803.66960795
294844.387684352
284178.58254714
259058.446219715
264248.793830345
298083.150919593
293490.394149772
322900.479608642
379386.692728562
274580.151249676
275139.736795766
472015.346887872
349387.02795087
494497.231993026
317733.506274394
502054.217692233
225714.263215148
228806.775827912
232952.284249164
230478.044746482
233239.670331537
235170.78958691
230453.408790509
240909.508403953
236397.36531685
236040.406275012
244861.183677509
254739.318969883
315568.447534208
1479224.9997518
920985.209518541
446778.592925338
445653.977657899
580045.130290353
336903.648903075
277249.681433568
224948.337261851
223513.821414373
221730.757095864
226615.739907246
225245.316439503
222360.571710996
222569.16705964
222854.240752049
222098.367623909
226900.403912407
223010.789872817
228972.443244773
228648.466940309
229433.970449884
221720.001229505
221645.439551973
219159.800205216
219437.196314699
220578.107072941
222454.829174679
224348.388565424
226283.163102669
220259.792551679
226065.249912031
227905.403713882
222134.870350191
222341.458125477
224326.883797971
221342.789896658
225511.212292312
229175.111663193
229422.089666068
233851.269769385
227365.251584495
239523.047367521
278445.223327786
233953.177026295
245867.328472988
229282.161733496
223726.404021816
254254.696387583
281735.997863287
276663.428977858
313204.504911556
324124.677603844
283927.186346842
248276.793658211
237172.036789754
302219.618349733
315688.631011053
291949.753527321
250498.093352477
257053.113774973
262758.957409247
262059.481434664
393364.642590775
261651.198144857
244762.946806237
506201.189189126
239752.090030914
235871.59621792
232078.327977123
226161.879122079
229309.294621461
1149939.86954228
1033530.46861392
1436599.77545256
988501.409818265
625447.178005878
704224.591460436
331762.27287276
315275.303625558
529724.569431046
604761.962392308
1563126.70902312
430817.13711376
1127194.65926951
623915.335443495
587244.910895644
326647.377594243
569826.966978214
238016.822785476
243463.354777544
220585.175302154
219017.565615857
218120.124879647
219871.818807615
217930.626214741
218300.950080925
216553.72366495
217942.644125979
220227.823596774
216709.623380991
217687.503583213
215641.37616781
219291.421573358
217721.923785732
217208.477816439
216016.214084119
217310.287263295
216823.885616723
217115.100106666
216425.133388447
216460.417915708
219658.501171155
215656.57545942
224001.376326752
219530.927664116
902066.508949075
1363191.65737985
244687.957577019
257745.452706699
241988.977958002
252346.512846276
300133.42813717
289402.683879216
271529.170149594
246839.396014249
254705.350120061
290854.203496788
297466.328728822
368726.816437508
292539.087168648
263875.469753092
538006.277591601
343165.078537343
437011.287886537
610284.006440986
320343.376924579
605057.749400346
222283.36899478
225543.857196733
233126.489639896
225384.27814132
231374.462861659
232852.962446083
227432.391272574
235575.631086524
247108.09083444
229133.92911496
239561.964647345
233567.887059744
235434.349020597
245401.665078905
350444.341207289
298720.208827841
1163642.40567764
451245.24087709
468518.406520921
1176305.07383353
329225.534656187
447510.979331576
250317.980293511
220944.784393201
219977.161336257
226268.042052592
221778.217610845
221940.764724383
220935.902459891
220534.969179937
220262.952407196
223373.360199376
227072.066790626
226627.854857713
226708.802418926
220101.213519126
221084.536175741
219064.840922473
217284.333611735
220255.958416295
219102.443390802
218668.725527919
219050.575902797
218597.581155472
218764.184284232
221643.197783732
222632.361520868
219538.173835065
220556.676247247
218049.373105011
223574.53469994
226089.30011894
220343.24146598
220670.266059241
220054.242997954
224355.543160391
219745.225455526
223195.44225421
226326.232448303
224672.583478734
238227.647815869
258274.170954266
229544.867007248
229167.885071021
222005.582282816
246786.411518435
279889.081557735
270239.886073195
299665.603659006
260206.596748694
303258.414217766
325062.113725621
380687.279985
300311.636448541
306515.129666423
261524.877946199
241551.418755129
235778.126118137
291558.359265892
301581.385616486
289142.326976718
256526.378822528
254019.763230699
249949.604312276
254257.150107224
270815.778571442
516892.346970555
253201.065842528
236738.311489699
245417.557381431
705312.557544508
234046.558133054
234492.728093648
232622.505804896
229922.701417562
224385.805381357
226671.825429339
229592.592252673
1137199.80375609
1190316.02922027
617716.921228548
1425941.36928819
519805.47999977
343227.088037658
710359.279502955
1106533.56544576
569274.578069341
434479.567233123
453425.358026668
1284073.1571708
1004924.23002522
322518.476228687
1131876.04277365
434508.414115433
234684.222544688
236929.951799696
217596.644212105
218465.90999048
216462.294111495
218132.097366174
216453.824080094
216567.044706503
214233.294994251
218942.634561711
215620.248000949
216744.819721042
216139.456239681
214184.925537097
215373.689433945
217666.160983813
216238.707434484
215514.151731876
214053.924699465
216684.779556304
215339.845224608
215990.520514576
216761.455248553
215673.332917061
215173.813745174
218261.506231621
214188.476416404
215624.116458585
225090.004638131
219040.011470611
863118.374543747
372871.22672596
240741.587185649
243626.247758727
275520.426955273
237832.507222206
247296.327969481
274572.799146676
299255.345787334
276402.372655224
269585.844353771
241085.702824818
247868.030626269
248363.176744117
274273.078350999
327388.533027253
283908.366679571
470797.996099387
394162.599568903
323167.295387062
252630.813981006
1037346.76810448
566028.208233404
397930.104950218
362474.964825315
418988.968133925
460275.979956967
594902.286732417
283771.438287738
584422.912132915
220401.29362704
222841.763002211
227197.390222888
233399.47175404
220846.113635392
232443.555801817
233927.038055496
221214.697103761
232088.296446913
229526.826956229
223023.813193627
235294.487381476
228718.099027549
233057.369217581
240468.191888691
390875.455959869
323447.988552506
277530.6991929
1980250.19686277
594930.391386121
566756.025731666
1090174.16574018
295682.752687645
371452.420364791
453846.053537115
554332.643946344
249880.967139318
248008.093967287
219255.915240912
221779.227669059
218737.836200423
219657.383541664
219316.103126768
218579.731770822
216959.827743165
218812.167860666
217769.428043777
220330.2754704
221373.226190583
221648.526401886
221416.147734385
219270.135577991
216826.727928401
216153.64149592
216752.960935938
219353.618712343
218254.705309611
217127.545877088
217653.4966271
219615.282696563
217405.595235481
221340.239337789
220393.343974988
221155.0270245
219184.043920748
218128.912387191
219290.711387086
216794.741759726
218211.999455727
218737.699299682
221531.162943806
217314.433089859
222620.647926573
224208.127015871
223733.5644556
242502.37729986
232029.516908823
255306.865595218
227135.334149554
220040.03673305
250223.375165088
267855.565900572
284484.652218992
258813.800427565
260512.170540028
348444.769988335
257118.679914819
313062.227121674
525073.663749498
334709.768523214
276557.102105847
274814.940531849
236227.074942893
232184.03321581
230257.287046519
297121.334060207
344889.790714624
317790.546801416
258510.583864006
248916.746340873
249341.888555578
242526.36858577
266981.381579165
276765.239271002
641480.505137231
258616.357646726
237471.940324653
232723.678477507
248891.794296967
1422070.48846772
1557293.83266178
233976.837207536
230580.367539944
225264.156557132
228025.915334192
224433.624194042
225626.728487585
538126.078062261
1186747.4589372
636931.885443379
335863.50425679
545477.956163676
1354397.04700986
1464967.76611591
1538872.39669589
463787.774437725
1476581.35343618
1220982.14378677
309019.568579174
359224.489389828
556285.623314169
235071.647591533
216558.655125747
216892.592547962
215309.115832227
215973.7066301
217514.532506576
215296.82941891
215034.582959574
213301.60695907
213065.195681744
213752.673631459
215518.121776612
215518.466492834
216092.645010671
212925.633149246
213556.880874536
216904.227345453
214826.741551579
213194.230338262
214799.894762987
213502.008686266
213441.209993788
215553.840011127
217317.680348544
214698.016851748
215793.964396071
214233.288951603
213836.08706514
214467.162281795
216819.716050826
213754.320944235
213240.780276394
223521.058331021
217703.970262538
1082833.08042538
456641.435271835
244844.526640744
248257.489877101
282589.368179444
272102.121742029
247957.462802825
273189.198370648
282821.609819524
264103.746401703
371148.35009606
284191.759337975
258839.953946543
277194.08600877
236949.021571984
243085.565361307
272685.46056109
347501.586694298
306637.604536971
434401.637452934
626430.010553308
492356.549882497
313179.906881972
250918.063338915
1522830.28642568
537550.525134148
305887.920673991
412411.62716318
475206.771434886
430782.723880603
639078.598655786
1587360.8552108
272590.910327755
218706.984536028
219776.677999028
220605.611168139
223540.463475361
226139.699529687
228784.12717493
219932.988567955
219033.127032363
231365.552066522
220371.939888612
219381.100921606
226369.794515409
224726.963419155
222491.546245991
225048.49467646
219787.088440842
234156.633726163
222281.83817921
227566.741231813
235805.032412723
346051.225364244
580363.992012282
1224290.29525577
272168.167161715
310069.041034044
509031.170524069
658075.467518023
247516.200403107
217276.874799117
219102.867737898
217516.088707078
218005.892303918
216770.655494112
217103.295751145
215803.211645162
215005.075978681
217515.75992583
215708.291226493
216860.206204831
221073.35646488
219154.240595451
218424.452527988
216088.177296711
214852.218047691
215486.692367557
216739.274823477
216205.312920021
215242.988024663
215682.320794049
218482.795616421
215709.306180435
220954.942881694
219589.807331537
218893.361327649
221771.934015027
224131.848221773
218515.507649935
217507.805005347
217329.919844804
217123.419048766
213519.334874393
218842.78346075
215957.072899706
216700.434377353
214419.522259686
223169.475748818
218179.337992102
223040.250789047
232722.98650944
226820.88306781
240690.626533392
251623.560348661
257672.574469498
296732.215899651
278051.010616193
264095.624551871
252511.672508117
272626.610018367
324874.69521288
491884.438881499
237944.541427845
287284.939698007
698750.401931854
318916.939810554
273676.257673684
230206.400578971
227778.562976128
324736.671584378
526969.558709363
359371.297743152
300297.949200627
255199.78583921
250619.226306512
240975.41765825
255217.194120554
240215.211647939
270032.405012793
270052.152429445
261906.210555334
233565.421739095
230393.833084459
231742.451384952
243559.777615801
230641.035936505
224994.304235982
222358.886141371
1253618.71881681
1200643.64464744
300964.877299181
524666.456586707
759529.873237056
522754.902289581
655141.696430094
997035.622909888
644440.921070211
345845.692192697
685712.808991293
335433.122783665
356967.094619927
662839.049801422
545749.41981103
232530.041875993
216613.372635982
216813.032926385
215623.465727602
213405.688777373
214890.36363998
216135.540251411
217923.673945523
214010.459535928
214150.610615446
213789.953037861
212398.714818199
212453.536014738
212351.983184547
212611.987509883
214233.953975781
211758.867221222
212879.158701292
211540.467979973
215374.842600036
213097.943125929
212961.035607267
212626.713424703
212915.23762381
214300.602128786
212420.2557988
212476.036821646
215402.093364884
216640.620997282
213778.584823381
213613.869552361
214280.272099798
213173.48574674
213604.833810861
212891.791465946
212441.619714117
214870.977159337
212467.72287516
212647.176814073
211835.546718904
220249.128133371
217408.523019935
1262867.47533491
236913.57120817
244645.061826266
258924.617922873
279776.222736933
273213.986435297
258974.872489462
236230.481382993
298974.846732642
270299.991337346
324584.142090338
277242.192161395
248612.969952934
268052.71050327
238843.045413342
229624.383589158
236541.572553983
271979.688566322
362047.124124821
485415.035859686