/*--------------------------------*- C++ -*----------------------------------*\
| =========                 |                                                 |
| \\      /  F ield         | OpenFOAM: The Open Source CFD Toolbox           |
|  \\    /   O peration     | Version:  2312                                  |
|   \\  /    A nd           | Website:  www.openfoam.com                      |
|    \\/     M anipulation  |                                                 |
\*---------------------------------------------------------------------------*/
FoamFile
{
    version     2.0;
    format      ascii;
    arch        "LSB;label=32;scalar=64";
    class       volScalarField;
    location    "2000";
    object      k;
}
// * * * * * * * * * * * * * * * * * * * * * * * * * * * * * * * * * * * * * //

dimensions      [0 2 -2 0 0 0 0];

internalField   nonuniform List<scalar> 
110266
(
170.356222704934
265.723474375376
351.878031886556
478.895497714061
199.944512248788
525.661400928235
372.678590595062
398.978998479033
646.883089246976
539.062557085584
494.04163249289
272.165782342782
483.387018484927
715.481625821132
646.228947385827
318.785772537214
570.428368064973
179.43041866006
411.394729057129
622.602508911404
743.70800891799
770.766061676804
721.432086882396
509.333060909421
710.060232011498
311.78142868599
218.117866793326
532.664845728166
706.612350303294
759.665740654538
806.179488014703
835.17426130982
768.441495419121
358.159937441785
595.570567387031
787.248432220541
714.076184026017
482.296549851488
478.494515712889
277.535817819436
452.542981571304
730.374908483922
812.714846028903
825.980235037143
870.141540343192
844.924936684336
785.816953792314
319.360825128081
505.632113011566
590.443106093528
828.63300005064
776.118942380374
747.128913806925
342.312367330524
566.298879924804
367.47974869453
348.922347534464
521.529865278844
769.56816001691
842.286107742597
879.944852051144
905.267094923968
904.874842114782
920.973785169734
919.714189458749
879.357366141813
327.60807485668
318.763315875973
534.113078652758
442.58874998559
759.175189332444
862.089321772616
913.61689023957
847.670329503324
823.265162117598
283.83387549199
534.984104145692
414.966039496367
138.653605255397
652.595373649711
559.991751391825
730.481750109644
854.296958569872
899.391807552776
960.108329632251
959.10968659379
960.707654346241
973.312790437237
891.960102824794
905.21424133502
462.911653163235
212.050718407224
401.849029323222
710.992950554441
400.951810693404
798.342556167592
775.886615749542
953.957044361735
859.020354470556
957.85830538812
872.524255645073
935.397863600815
822.73552570251
387.556752536747
659.267879088547
551.313553421365
234.48533853149
658.674337637069
458.382551567083
817.69344410043
878.05823494999
949.50829982622
983.901672135694
983.724648928427
1004.49124469474
1026.68027968031
1037.58638931389
966.130740817436
920.982766717529
923.167564575094
282.59744776235
138.49813765061
372.552287513257
759.05016315529
704.535487724876
265.700650266451
540.554509097689
801.02808004441
840.362257910538
1001.35598202096
835.308611735842
932.799094946476
1023.40974024751
982.501873245087
853.134344085224
1001.98592572772
882.250313754283
526.662099385213
654.443168534811
638.575119698094
350.628163171102
344.135300803685
627.274276937893
762.408318808811
487.93808651522
838.041230231028
908.847368695122
1040.43871047311
1054.85941909516
1048.04946633525
1076.03180251518
1087.34763178843
1024.61344187468
955.511907187562
972.82162128454
151.560533757839
259.653823968548
247.768904533456
511.863992859688
778.427770918409
745.712654966982
789.331118331816
439.856705266081
773.290084434987
949.918600658589
1028.93226329391
985.302927121164
1075.02582871634
910.991613814689
1077.99091635687
1001.64591850359
989.123968682749
917.665693262597
798.617836069084
1027.03612625972
799.371572850434
937.656512862536
327.884796202464
626.327943805212
613.01524395033
264.007124287749
180.016267133842
715.920984941161
786.645672661699
426.550686703288
876.018024710979
972.904660123123
1075.06059928402
1096.18953323043
1108.21903861756
1085.95297984015
1107.63788336702
1113.53876785293
1094.11684439111
1068.21009449964
1023.43235836675
473.102602334372
393.137364039705
855.668901054518
819.64097194085
587.052528913824
837.578686742209
792.17056702709
222.188687921316
578.101862141804
785.665165343987
959.453631377562
987.175827374233
1105.87833789753
1048.90364769788
1092.94580991201
1120.38501753109
934.918015079429
921.557978354603
1081.91625450641
1015.68063250664
996.255475920858
1023.76995562712
961.127983009873
879.682358984363
822.127747757347
859.777635866301
961.526952899684
165.151199345628
495.250142013608
451.663941200115
774.275267533426
720.464695339475
251.093243797588
260.972989500941
742.686189204506
835.610871146094
501.415212976894
902.649364324473
1006.39274623617
978.904050887103
1069.54501067744
1121.4252752883
1142.7916111786
1154.57990829251
1163.88243702811
1121.20913143366
1161.4711522457
1097.48044677456
1075.12743257611
364.842442972946
296.793240009758
414.925909602763
891.642972381728
905.304103151832
852.287878221626
828.811970498746
508.147378752915
609.640568245173
906.38561389348
754.755858710273
254.980084579563
523.717569730929
823.577298643042
939.827622974163
1008.98195065624
1146.19434344234
1004.22853991562
1111.3351656301
1132.51024446905
1170.8007431277
1112.68589852886
1113.64745048373
1021.24726200477
1000.93467741484
902.728227303736
1086.3187931001
980.053697371503
897.211670389075
867.429808833808
946.979091520803
986.026376071452
250.441538931717
304.039275838523
449.55880035146
429.905352994777
797.0251900753
722.490788471899
563.153031646057
329.215607992764
349.937838372222
702.980783099135
825.740216434577
606.115918866248
546.761602434249
903.26403416277
1030.97628045812
1017.54924036343
1093.25694888572
1168.3254994888
1132.82098599075
1188.78940673463
1178.36057888462
1239.48890156695
1206.59641619059
1130.15058519657
1120.98130115466
299.612805510932
280.77143102982
306.293443913889
935.317001305156
845.897869323289
844.167886995073
784.383398358465
919.324289805616
427.388672622495
484.434994405878
541.917168822169
754.974591207472
316.286209855044
629.488013123323
787.34262624161
1016.05463872104
1045.78075350075
1184.86945860973
1187.1406296546
1057.94406839266
1160.85742012988
1103.10128710084
1157.22395528026
1164.76791111843
1224.89291919511
1154.75014011295
1162.33585636135
1105.029231382
1074.02506669455
921.859795142707
1044.61579536115
1028.96987313145
1106.74439076082
1073.02717577554
959.038245484368
926.528827856838
859.79626437669
938.950800699199
1035.92824350178
275.818404033013
176.51026128023
268.239687459745
289.012815990721
536.984222064898
749.33159380432
731.310662167296
589.98812568514
484.664470325825
503.971452519649
126.906993855346
763.603676094501
828.036285232817
583.316924223491
381.890805054714
943.575968846013
1076.74143887129
1001.65213577098
1045.1477547562
1210.11370400011
1169.62033534627
1209.98049886378
1224.06467842126
1244.21619228309
1241.50511777645
1264.01751107015
1219.44835984839
1250.81568353322
1180.11582540452
1147.89116797745
1105.55194171062
517.390097067281
993.189837958295
901.509483293953
782.4294766864
808.895027050605
988.055087492042
895.096201406848
541.685701261887
291.604651126964
604.999412716202
341.277636787132
633.219328938816
508.507300371045
645.499495919671
880.177858617639
1051.08072382183
1058.17166153749
1221.23679374661
1194.19816255991
1217.20735643466
1187.84727087149
1178.92842944424
1153.16933286686
1095.63622358622
1187.69563788223
1238.48667891402
1263.43068622749
1256.99524115789
1171.25192956995
1155.97344343591
1097.79158521039
1095.33223243913
1080.15301432626
1068.58920743546
1045.41503787965
1034.48069161228
1105.42479385648
1086.18657655721
1010.52428057018
900.586944886012
994.47480124436
845.748782301752
951.813865563013
776.476782778272
977.352075712644
1042.94255423547
423.701864632637
422.894777734719
570.26616753593
792.559450771993
764.355070304974
581.558979289553
496.136726795201
338.227736229414
221.043595624295
796.434588820797
711.141010563579
898.057856904438
491.456935203697
316.848561686255
940.141690811032
1114.19467302923
1047.45030334128
1243.39073210361
1200.28052579999
1232.6298909215
1263.92699434535
1270.72009207659
1261.01112766597
1252.07491022026
1278.93711768919
1286.93591390302
1231.90001251571
1282.73324445851
1209.50459645978
1188.89719938785
1135.43820373742
409.932853469457
1032.29115296603
976.047095835159
943.520688084818
784.844714193286
752.488694779471
793.032992813135
1028.82617272648
1008.00897153487
879.836348560323
947.127191558942
635.212790736868
330.095781909294
600.088850831144
456.31875340502
578.262294970461
513.957343507592
616.430036574265
872.972612535918
937.856274348924
1061.07837722211
1226.53386376831
1212.66969150931
1219.2173872727
1181.17338494681
1153.86999797975
1254.89518980366
1305.98447995482
1303.87703703624
1211.52919954643
1208.82345420147
1179.24501236403
1170.7537436544
1141.95969366791
1102.95554647709
1136.29149256144
1080.28633361636
1070.59222799324
997.90117204453
1127.06239583318
1100.09555143386
1137.15232075579
1018.89374081764
949.997459411574
881.081027067101
987.17059796515
934.860431312037
775.302642497419
952.178716005005
975.934936502405
1023.49844005777
1043.1104056329
1070.57687376701
222.86640896319
296.091573674231
475.193040866539
805.220592741938
721.269366855712
726.284130377408
504.960039051523
320.990670991676
276.251799299349
866.958049337026
776.717499116734
691.979938825006
943.045216108587
517.515815076868
327.782492584422
995.844796738392
1122.47654034716
1089.50844771588
1270.01645244497
1221.71274447903
1270.4334120109
1310.03305522351
1308.45124087396
1291.85141173198
1317.09445451786
1290.82575733657
1327.42159188146
1273.73656574263
1321.52620214846
1234.94914994611
1208.03563386539
1194.24746670154
512.314726884794
495.244552424382
1075.85039579043
955.703071726252
945.361563613414
857.444746658078
835.176535865275
702.706924256243
844.62358131384
703.745876087839
1052.51347837509
1045.55627466308
1067.1872522694
946.641550388219
937.777625794591
791.603241431679
565.451492352984
506.282310179401
439.622585129997
290.757309732525
489.041224417092
326.7334134046
776.649186424434
912.889764942638
1117.9547078616
1265.31523034834
1247.07035686043
1230.28957644601
1182.48824926914
1212.03523796694
1171.91036732657
1134.8364456142
1283.51957303393
1315.7587675924
1316.19013430946
1328.65980280564
1239.81604425471
1243.66971971808
1195.32233165408
1213.1800402763
1185.64680422323
1176.84437263524
1154.79646670145
1067.14498372137
1142.0356939692
1031.74738323863
1094.46906596542
1159.44674237139
1141.22089404391
1111.61147599519
1195.15796817059
1122.80431113789
1003.12056504578
891.674370863322
966.466289041837
908.546963451272
831.28054966042
1011.75488814537
923.217478715557
761.27218473645
965.678341727297
987.525364107671
1081.56536973559
1108.63361826999
310.676091329294
174.120754259479
330.027707131558
583.249235312512
775.170082012991
682.881627181154
783.931783619086
720.544866050012
568.329096452947
162.342321796776
477.669770215913
880.661747788862
815.015586167146
739.835928600448
617.007306181574
936.996542796125
527.350855861271
150.055751339688
1040.45310073267
1159.47484841431
1104.03994793486
1268.13682977118
1312.26209535754
1334.73256422852
1321.40786794917
1343.68515826399
1291.55057515573
1321.18948297562
1352.05305886221
1345.12263825618
1325.76761772604
1365.71910271949
1296.99965529589
1269.12822014011
1360.27367464481
1332.62986168365
1224.00939871579
1197.9820263368
565.082396372463
326.543388275594
954.991431246997
1013.61928934286
843.987699394441
873.729602165871
781.301955638069
810.986304433025
578.161561005314
728.171051304218
1113.84648636257
999.575684574182
1100.2617912173
1073.22388708059
1096.7790877025
1008.54890756634
950.386049529039
933.955333328613
758.080060126049
433.668478714103
491.01421622211
212.135045066313
137.650849088301
529.036809336586
239.967735516629
789.405420986064
733.396898255184
922.649320421651
1133.55192666546
1290.14147713255
1288.1334268647
1267.11338869951
1159.43322718895
1243.9400156496
1201.76593466551
1257.58283007989
1183.73834685021
1138.84579532718
1294.58171215319
1357.77238376066
1340.65862509871
1352.22141101785
1250.85750731076
1278.79867383992
1230.32628437135
1235.71149823795
1206.25946973688
1251.93896782649
1219.57698308833
1223.55043599014
1212.65210951115
1141.95821665915
1104.50972398721
1160.64470566435
959.316833210331
1063.15347122758
1111.89714284516
1164.37538091126
1202.80557777192
1145.60397845225
1070.66435305193
846.23818829624
893.296464013075
903.576966119631
1055.21579519934
855.382989517416
944.166763618663
929.641762584302
730.465154630354
1029.54283989866
868.394734379177
1042.99753322371
1136.16125270426
1126.66481569693
457.268539165844
329.869351264979
489.845048852305
573.318651784476
521.342860324562
707.152139728925
748.088411631244
798.977648581791
568.068145825555
324.251887284631
382.565397396157
561.787747067713
799.450058612327
663.723869971023
981.013119454272
451.856808590828
228.836249816941
1034.35466876872
1151.02087454564
1301.06924921092
1314.0258048856
1334.40561783622
1354.46311615478
1359.99562798334
1308.54409871046
1359.35733305879
1351.06106464827
1378.43815111374
1385.09147348789
1359.17253609426
1388.1915897156
1348.24604957698
1368.51400954343
1388.64672351567
1305.42027677404
1378.76840554909
1358.18332226397
1262.52085678985
498.073094684795
201.250234929633
1015.20118780054
1037.03375293052
820.769680926314
921.857500112911
866.067124318219
772.934478424336
761.979677687794
865.682130866251
791.741125903171
590.126556926939
1162.19061870256
1108.64677985885
1005.50867901927
1110.88095630024
1159.40517227638
1055.39816526506
1054.32329411234
994.748609101649
948.919693109749
964.128962472312
795.919806638894
306.02024086785
302.772435104222
277.937601587013
666.200679628467
476.538835523677
711.974520887364
710.553213275669
945.939507560597
1172.92632363919
1321.18206962576
1292.14582483554
1307.11933453786
1289.18843722755
1288.94703299898
1175.52726538591
1240.46034198455
1231.17296716076
1287.80093303816
1274.87116948241
1166.2860308434
1170.5519768192
1148.0475965887
1340.80159419122
1315.29270026716
1344.56357239233
1383.7237656271
1364.18390268347
1300.64858373389
1263.47838834545
1271.75322170055
1242.11821726979
1262.88524564465
1282.3749424336
1212.36827623681
1242.36689433932
1219.59017253343
1172.93165419691
1124.91356224065
1154.78352475825
1089.38931276754
921.685547144655
1088.83819963318
1174.96008744698
1241.20191737485
1160.77564571867
1081.97329263081
855.620131931534
950.912873157042
872.38889113933
931.884607277019
1075.06201140274
850.475667863401
859.96337366915
993.012286647742
961.85689915948
798.829776749755
1023.83729139225
872.80057282767
1054.18081364497
1106.80671087545
1156.84656165629
1148.32706451156
274.123429397797
452.265546108135
253.630273678792
477.78111748057
566.517709602107
789.371193547505
875.343295094291
775.775632413697
478.462434034512
459.276939208892
485.616195049325
474.356583252733
784.556475227701
633.881534471265
509.995717848545
347.618605336116
1075.51416398737
1351.39534931625
1396.70133617473
1375.34275020687
1391.90859036678
1337.33276462424
1380.03392625459
1406.91856579191
1369.33549542149
1421.817924172
1409.93176367778
1409.56507532899
1414.78500405772
1359.88623333142
1397.63181941904
1423.03457280231
1311.40521170131
1329.84983203133
1416.21996276852
1378.15819624846
1263.21240283013
1300.8761719071
319.756143978116
579.95838648881
335.449215865362
987.31769088625
1021.14441491461
884.177896852929
918.196479718866
847.699549484209
825.293435264158
734.809146686815
917.19184252934
663.685600300179
844.859154456486
514.100624034382
503.103123240172
1192.06889390595
1130.1725527765
1155.26645909196
1077.04047661049
1180.12431922927
1033.3137639
1100.74473135982
1053.05119993282
956.610114914269
986.543403926339
779.519048945028
149.284177445268
382.6317194377
399.643311474644
546.54042071762
300.270831813748
838.58409333335
591.25017421528
958.576206909025
1236.41348939397
1318.76377067651
1322.86636075129
1314.40712030484
1304.58552790384
1262.27847592178
1317.58824374413
1310.95157951349
1273.15137513839
1188.18260280374
1209.77488916263
1184.48200616863
1367.3214136968
1345.81697827052
1363.79116135885
1423.32205171208
1387.4872636599
1330.40747012353
1326.3808555189
1290.15640322826
1273.20840752104
1274.26972011455
1237.01143509359
1294.48108924504
1301.80195192381
1229.07084380134
1247.91221153641
1237.01866706246
1235.79402267152
1216.51008821878
1139.26133298654
1212.67697956976
1075.40626809942
951.723480162688
1116.24923774515
1069.66566198084
1206.50847865855
1254.92835825879
1283.39102204757
1200.6141048082
1033.96285090481
966.574239440325
924.067342305954
884.90457694763
913.242088232483
1105.98617973967
832.9138496763
832.156032493448
1013.26965834123
976.574184484441
906.367416784942
790.579203315911
1055.43351475236
816.4606462964
1068.54192999376
1104.86576056009
1155.70517007885
1191.72410585515
1214.37451877986
277.101223397164
278.427941889936
277.810099916081
157.498748082398
487.560452120173
604.315250214539
884.354714425923
781.438191858155
588.752004761782
469.687846384155
513.457017157053
292.843546313199
529.131478569242
709.810559408981
539.589455490748
225.248448058934
1116.4102660128
1072.21783030266
1384.11668383625
1416.89226782031
1407.77303271078
1395.32638487659
1414.65697746066
1397.19074586385
1335.20315650069
1422.78390718473
1397.49123320472
1438.97532808736
1357.74056754693
1399.06954969172
1437.44689555396
1437.62361437584
1429.16481011355
1438.3687218938
1379.49743934398
1427.97457107763
1453.12690470725
1347.40069837364
1403.98721140684
1443.82242091128
1272.93198703987
1332.73194410524
436.3480134535
457.753098914497
1023.06959980822
961.092379449064
1088.97665562557
974.446044276674
876.413628604829
887.583397118119
950.449511640705
941.550034227203
817.60597740182
830.841426067809
771.109556145608
656.855447252162
919.620149582226
908.974854767422
538.364620166545
728.047360107847
499.24776590264
795.615600464609
496.581457260128
1237.55105053408
1192.44326846841
1161.60386367058
1177.6323290414
1147.73109960219
1118.76907963097
1170.77564507542
1058.50759794742
1095.20981794304
1100.1862847894
1018.0165109193
975.877023101567
754.231573672408
278.392153037568
201.555070407319
537.11542188244
533.920992564314
441.296390062342
800.826363687237
936.30098778615
1263.78514232158
1320.95423264931
1343.30933118341
1251.30299719135
1271.83161248586
1346.190480755
1329.88080002522
1319.37246281802
1313.2573424892
1236.73895523347
1293.90497694536
1208.86518987429
1210.11364020507
1177.89264834636
1377.73071727693
1362.67308349464
1392.70285060467
1421.08559116864
1353.66749677787
1325.33242900019
1289.72087485769
1260.15732547725
1339.82575799091
1263.69295301747
1242.88577830382
1325.23097662032
1333.9695271827
1266.73117759584
1325.33140197108
1259.65566863305
1227.62211086625
1217.3393298311
1186.16172838801
1217.50230383721
1105.3483502815
947.078616360904
1172.27715293644
1087.31743152248
1218.32343687927
1297.28891925794
1054.35509751039
944.525389734068
956.679260332055
868.468310382799
831.699864543059
925.756793091897
1083.39677740288
1150.63585462507
787.62377526316
790.812961786573
880.187184398813
1015.00198575224
1022.63173407973
977.269660958437
926.999054753618
672.85573033219
1019.0070443468
1102.98322262554
615.769180106997
1132.35767266268
1145.20682709381
1185.2781432136
1261.66008470501
1220.01349516275
306.01067504053
284.999995012561
292.339957129501
227.42312379437
544.040859826957
495.922079429516
818.239551175552
844.778344643336
532.769344749714
471.905515058586
430.75249894368
657.814890146062
293.104919706643
528.912888269705
449.053606729194
699.559775318722
408.636078269958
1120.34668594915
1066.03318483653
1397.22742432393
1428.36913090206
1448.43952406249
1415.38538654512
1417.6445432683
1411.21224544415
1447.62184026779
1412.28521502197
1367.40272563207
1441.72615109776
1401.72093019097
1455.41292633115
1387.24326615373
1418.10865972553
1450.24823933329
1470.90507572829
1453.4861543425
1457.27235259841
1456.92493548419
1463.34460820994
1469.07656224735
1373.97368719894
1465.28280606021
1284.33431079339
1363.39266094532
251.105010287506
263.533498591597
1069.79747898063
989.010945768449
1063.87072478932
1010.49307086087
859.171280075107
869.287561850418
896.459049050674
999.134275130091
963.242882585518
817.80564077527
806.015656692673
685.15256310982
848.281033493766
937.737986976161
455.458256856179
733.150806049648
602.878698097215
404.698610503535
777.319073813855
453.162103029787
1278.27967018041
1221.44590173573
1147.90280264209
1222.52051723489
1145.24364643414
1135.7892328861
1180.99236962503
1081.94462464919
1012.07490781609
1140.56136871124
1066.51985659767
1104.46115558003
1088.71023127225
1005.52373223666
669.750229949015
791.920762155606
235.453186277442
537.919273493626
463.301086945519
259.08183425001
812.977725203373
649.82382794452
1037.49404935678
1326.21602564306
1362.37684315335
1242.91817534981
1311.10866079615
1356.87422841707
1358.50379332702
1321.73630628538
1337.40619355353
1270.55005865974
1206.37008206743
1211.86296048602
1185.48488973191
1406.39233218449
1379.54048472611
1395.8164487542
1425.45508798662
1361.59393170735
1433.47810138282
1435.16911598622
1379.88649511175
1371.03451152763
1360.37246158698
1318.37480894674
1295.76190537484
1356.71293056423
1325.39927416173
1362.64017998305
1288.93560888245
1258.89136838568
1351.80804002295
1350.0890170951
1330.71089167803
1246.28129432127
1342.13912327104
1270.43871787777
1235.24253134489
1238.2620084276
1119.56173316583
1026.87824648523
1199.00163137496
1214.6757704468
1316.52801116412
1090.52178885168
944.018537436205
979.195102814609
900.010989617426
1020.30311764893
888.938032246871
858.045712042517
729.879726147199
884.912792006941
867.18586943794
1002.7456065023
1120.3355187387
1155.9718097077
820.763670626783
817.056085887351
882.982133568698
963.88578928513
997.268504629621
1049.30219086868
1019.68475831868
896.710538476629
505.086740545758
1054.52606391597
1153.5660820777
1097.84080395037
540.992825527416
1174.81667701426
1166.88742782524
1173.45780166831
1201.46409875875
1276.21027413266
1246.33510760441
1212.15787160466
303.611070388684
256.723329818031
441.249372093635
420.969123989395
569.151553333707
811.803217138589
474.926482173236
302.170890649295
588.853951705684
632.767196913303
642.085348937908
320.649388470306
238.300783927855
670.929349476256
257.995010337021
460.75883865568
1148.31210916382
1121.43499237168
1460.0543006084
1446.34928187477
1484.65034468971
1451.21608080037
1445.48104018457
1435.52574997308
1486.63428194479
1380.0278038588
1466.34792637236
1409.04007175456
1428.40559919419
1481.86828150179
1446.41730743489
1412.23698914308
1446.39741568937
1482.83334052648
1509.75246818568
1464.70072508673
1493.62814496142
1470.57435250678
1470.71135146272
1480.29841759145
1501.97732224422
1390.215294521
1489.23924419013
1470.53430031902
1258.87138611188
1366.43650624828
244.004293114858
111.531955858429
1081.94298019598
1058.19821601172
909.896021685368
1087.50655227488
1015.36636774118
919.550431955921
850.638677457875
886.539573369778
889.176196917885
1034.8252428709
982.296979071176
988.758578045221
873.183682153613
742.568110408242
843.411049278336
569.593428324612
641.692413231871
771.903032369066
980.853166045303
222.206525075911
495.031866660045
668.882921103805
700.858140377339
642.010183179228
591.249844731917
467.590147009811
859.372780655523
493.829581719765
1275.28642469932
1238.72656170128
1198.17558228593
1131.39948462851
1252.22566605844
1134.46645325454
1118.63109387587
1220.93178111022
1124.17527993633
1122.88141489717
1166.70120006023
1088.10369399656
1138.37699384675
1097.30548577561
1030.81640125318
592.340922353637
726.355980495484
858.691189502815
338.416498353198
448.2152725428
356.096871489881
245.121147496319
871.028029651769
745.303276588516
639.543606489843
578.095391097245
1030.6206947954
1053.54067533133
1351.99327615546
1278.54247876834
1332.36971301336
1389.28011703062
1381.99734605252
1396.73882254016
1362.34732006046
1383.02663380481
1360.81422413493
1280.78850658415
1259.16262424593
1256.61351114519
1246.13055373268
1414.43701884937
1439.51529260558
1449.8333486187
1420.58491231649
1369.79354918277
1450.48696569006
1398.46673128752
1376.14039482277
1339.07758494226
1382.51690564494
1312.34231694821
1334.31914119494
1295.53097810163
1339.0036637164
1383.46932155647
1326.17800739276
1364.92880850175
1344.55684426491
1356.99809222231
1271.48785529521
1360.44321828775
1264.16070139584
1254.62167838979
1260.62820878038
1091.6731288471
1164.05336713812
1033.93922438476
1215.7434777749
1345.61420392239
1067.27706234121
980.514691665993
932.292893650102
1023.86799525715
1004.3597617837
791.545375823102
1029.20285352497
877.000151714594
634.570828061674
804.042959806716
943.153187796642
947.778435764675
1143.21474645435
1184.87219149233
1190.05391839171
785.401455559109
725.797875305376
836.71078435136
961.609993899089
1032.34321854692
1060.25706133003
1093.6475130012
980.006043075995
860.23956209805
416.809649902113
1034.56412456152
1144.91127759972
1183.84440071109
1078.89117854217
420.032452551333
378.535648906176
1165.34726796766
1192.84621994247
1247.18475197736
1219.65417431235
1270.25860565472
1249.02920818548
534.366653414915
327.398886057758
520.716882909135
842.709369926274
587.675999734799
359.011908135192
365.543606353481
331.087879915782
607.267780419177
352.101367172906
272.244875525259
717.035445914468
564.924674289812
333.758871631955
1138.35941164948
1484.58731617208
1480.39014942858
1502.69038411104
1497.39142762673
1471.95808410222
1460.02840079091
1444.34921648318
1497.63676224821
1512.4404214707
1502.90562016441
1423.3534063077
1426.66516624625
1431.52962081673
1511.05521555511
1477.31394072884
1419.10315521696
1462.19641351109
1518.98405365364
1500.61934838535
1529.60938713284
1525.1372948221
1499.47129602197
1444.42728415073
1491.66106000621
1493.01662536669
1509.43642674528
1527.25217214404
1515.13225033395
1407.39380403489
1489.78437317841
1514.79081460652
1270.55076611008
1388.5102318834
284.84341982675
127.26002591957
1049.26969711922
1023.91396778052
886.749105347859
903.546156002674
1000.59531733879
917.370478898352
894.258778984316
959.299659739757
721.23751292804
853.443823469934
929.551935687499
861.770899989864
1037.1962120444
996.112465979675
875.025776679553
722.236648334339
793.580171200848
598.045578410984
527.18985401042
558.863066008552
794.14952570345
977.458441081843
286.287464617395
531.845498870033
799.895251981769
620.029342586736
624.538484270065
620.847305626554
501.647995357338
293.971929820835
884.286592554527
1291.05180368829
1277.94644534958
1255.24069416191
1214.72042532667
1209.07556580386
1159.61611205789
1246.35432411497
1280.96887661983
1112.56729997507
1197.11443342578
1235.22122386105
1164.50506457973
1134.05712993072
1151.25083348884
1151.29550497016
1203.01715173652
1078.3727851343
1176.51529932165
1132.02948825998
1046.35215480379
671.247227886431
381.368468797561
264.530499825854
947.864917670707
828.323191568014
562.434171768397
541.432672424363
1046.67648616959
1373.76497720795
1314.02594670508
1324.53793254611
1434.86765553184
1423.16426318231
1422.5784044107
1356.77938567895
1386.61619543821
1396.67304370423
1378.58680252097
1388.76170202324
1241.86969357338
1279.73751000706
1239.80441623405
1449.48142719438
1468.14564987363
1436.90094934091
1481.43017931158
1412.15851874326
1425.63497265162
1409.35324972199
1353.13966393261
1411.9226710701
1310.75720984028
1335.98131345781
1360.76477920212
1282.80166416809
1257.2336960765
1324.07618980142
1348.44330400384
1346.7199840157
1349.32224634893
1410.85922301589
1309.75196039531
1380.19651028662
1380.73038407803
1410.60269135825
1251.29170496416
1318.63786636259
1262.41385094207
1152.9013123249
1210.82738650396
1113.67518961605
1064.27926113586
1015.23287210087
876.303823350749
954.368373204391
1005.72426369827
1041.73288456027
940.033292853243
810.545986980721
624.940488252158
1127.03412019546
934.390756721581
562.782026332596
816.777816341673
942.519213201362
1184.58107770134
1216.24543988371
718.819381717812
512.163442444864
746.959959695575
885.859762019278
976.282722318173
1011.24060627002
1089.81655751074
1032.88034082011
1113.23402159756
954.453841906352
892.017526229554
1015.38539329679
1168.0897675747
1187.89896454082
1185.47174410667
1105.72998461762
1188.28171541562
1249.71091002227
1279.07497727313
273.403274783002
264.585618537997
898.579549924631
639.055152538301
522.785284655166
582.435261827654
468.192648426161
248.223269568472
478.300715778258
748.282880946571
399.743476441764
627.015896950819
557.298676289332
117.752037250198
381.98105465231
1149.81124999958
1491.28601196313
1488.64389969589
1506.13180663954
1539.03416441677
1512.89087518734
1505.11839693924
1469.24502712788
1485.49658724268
1473.44530699765
1469.81029859247
1517.92086586337
1495.51412759619
1527.40464237948
1521.19694871397
1444.85411138026
1526.89327181849
1477.80191976812
1514.98886165148
1443.64896753522
1482.94561345617
1527.75942758683
1526.83793415556
1540.96476576676
1523.39204402507
1551.93614042125
1536.84952617205
1504.35101616167
1459.76649225923
1509.34716781181
1509.258575865
1521.79835157425
1525.61392835373
1533.17395056587
1545.43844382847
1551.95379268311
1441.80024345324
1513.17629716651
1530.88408456454
1531.94173824205
1318.36075782709
1388.88474661231
249.963412634392
1084.40026705972
1025.35954410482
973.46301141864
885.50100541559
898.309801758181
947.548406743941
1055.65316151482
840.38541198534
935.077970030166
769.06285859486
867.325892188052
962.172070764576
881.051962849519
1017.99445885823
1077.63889194998
1024.77928105126
867.977915250959
694.99007725095
586.108726376645
756.919027255851