/*--------------------------------*- C++ -*----------------------------------*\
| =========                 |                                                 |
| \\      /  F ield         | OpenFOAM: The Open Source CFD Toolbox           |
|  \\    /   O peration     | Version:  2312                                  |
|   \\  /    A nd           | Website:  www.openfoam.com                      |
|    \\/     M anipulation  |                                                 |
\*---------------------------------------------------------------------------*/
FoamFile
{
    version     2.0;
    format      ascii;
    arch        "LSB;label=32;scalar=64";
    class       volScalarField;
    location    "2000";
    object      nut;
}
// * * * * * * * * * * * * * * * * * * * * * * * * * * * * * * * * * * * * * //

dimensions      [0 2 -1 0 0 0 0];

internalField   nonuniform List<scalar> 
110266
(
0.0041202290902935
0.00519350384792156
0.0193039305650131
0.035950394379135
0.00366593653427645
0.0543612035011591
0.00767232160188226
0.0250190880361408
0.107051533130594
0.0570328468604861
0.0329504027373744
0.00566017316436128
0.0495497616295429
0.145850099960268
0.104567170450512
0.00621718610926944
0.0573778442318648
0.00460126533853972
0.0283007959781825
0.0999717152877982
0.162807732959843
0.176167466353962
0.142651364107041
0.0361162431120955
0.123828974879929
0.00610060179051964
0.00549528958999791
0.0516011806559813
0.138000893821484
0.175679607688061
0.199270296717607
0.221651829916105
0.171065328376492
0.00726966564356666
0.066138562722797
0.172541150157126
0.122333105548078
0.0300606887215971
0.030371031991692
0.00623508986289417
0.030256080097643
0.142364163992101
0.211627708104922
0.206660843638164
0.246404067971496
0.226406742866099
0.174469595352475
0.00683344179598128
0.0352397159489289
0.0625155109486848
0.199564691147305
0.159683571710897
0.13630429930499
0.00756536299564463
0.0516455162719735
0.00965192650764453
0.0209879827647184
0.0529156985735812
0.169335626331124
0.232044623106662
0.259851815381673
0.267404713051886
0.277064417511763
0.284919043640249
0.280687948405631
0.242737515118055
0.00692137957161683
0.00526102675421897
0.0500411021298055
0.0225221653093378
0.146562147431723
0.223575895714543
0.269026464316136
0.208107127999296
0.187599481002987
0.00686273085649582
0.0343729884639822
0.0102777500120898
0.00272587547604416
0.104215980798124
0.0582184275351211
0.146226566944316
0.226705613510035
0.274332944374683
0.312485984238365
0.318270513900051
0.315742781194795
0.3279461876543
0.24771008059329
0.265013242321571
0.0293036713652726
0.00433052750527762
0.0242903623380967
0.121437550194337
0.0211097819066597
0.172467200067463
0.159347558669463
0.30084516560196
0.220808912176227
0.307210592212511
0.226332680142302
0.283386885038599
0.181221474414773
0.00804910632727975
0.0822897716809362
0.0427175964456278
0.00358140827567756
0.101975763426176
0.0310912524911512
0.19902215210325
0.243736784479273
0.300676212693581
0.338505669676775
0.330904704129223
0.358283376966208
0.376934135519563
0.388333803955982
0.319592680903292
0.272167870075658
0.278414606514883
0.00533881082129104
0.00345390673678752
0.0203004511713002
0.150801419451458
0.116812003384424
0.00480591000622791
0.047332674856798
0.173603099541666
0.202119072938992
0.343906581046895
0.203342278338851
0.280255851497351
0.36630579108746
0.323920485086751
0.208390873655839
0.344913979867955
0.232154342090254
0.0343915556400973
0.0834286284299047
0.0766927394626561
0.0070145851093468
0.0213911315412945
0.0952228921030093
0.158661691067427
0.0469961389059752
0.216591913366755
0.270993241143611
0.391025661025505
0.399031490780549
0.39838538686834
0.424514965069928
0.435889373218597
0.372682933558975
0.30201977663841
0.321309127221978
0.0039321359972139
0.00471163740120775
0.00505075940420421
0.0443281214604205
0.160824321938925
0.138969579552806
0.165736722602866
0.026816564274334
0.152807589524744
0.293703660011142
0.370175214272227
0.327659459702247
0.418846375237853
0.262179083733423
0.421869361421809
0.342288805100005
0.329534691004023
0.262870129618985
0.168491079277977
0.36917474057419
0.17144347828855
0.282541264984032
0.00552467993909906
0.0765660788844353
0.070727862749055
0.00603148071423521
0.0044230148948598
0.141120365386367
0.17918502687247
0.0306242922890284
0.246490775270678
0.324112672944012
0.426670958230433
0.445580736925097
0.45540168344636
0.434873063575153
0.456704047454497
0.463112977910277
0.442084966980152
0.41566053229357
0.369799708185483
0.027638900323489
0.020103354348962
0.214834070239022
0.188070958244165
0.0641846963278913
0.197472296056691
0.166084687658445
0.004573293798504
0.0568580290395713
0.161946864839773
0.301246059999416
0.328556660728561
0.449741223515029
0.38864832526048
0.436415555532155
0.466847883429932
0.281585250370346
0.270124774549343
0.426045784017798
0.354966132239783
0.334689368240869
0.364408471981581
0.303915661397237
0.232347453802705
0.187629207974672
0.222493962770344
0.306866663474711
0.00395516038380538
0.0330870112606052
0.0279122707754768
0.156685056597548
0.123438421011489
0.00586397220183888
0.00534906952145494
0.159515877669077
0.213627156253111
0.0500212701965946
0.266315319417173
0.355950824761715
0.32919790171148
0.422018317724153
0.472042222199169
0.493862362490043
0.507327313642301
0.516817619869906
0.467429876905061
0.514662038596514
0.444507351079013
0.421337434629213
0.00778944033682327
0.00706777810520937
0.0208067650211364
0.245325156240162
0.255656547404062
0.209357494619239
0.193730924151206
0.0373822903780595
0.071447133398307
0.250894350246047
0.140174837703975
0.00488222095463202
0.039438300157349
0.187267627260896
0.285528425207524
0.348196665550022
0.493017470252157
0.34451632513571
0.453514850969232
0.477638898756704
0.520747262690728
0.458597815263252
0.454851299517871
0.358777056687266
0.339319261146185
0.249724284064325
0.428802589348594
0.322679308886564
0.247510357835332
0.228937759401152
0.294481690819873
0.331559213737073
0.00492547645169136
0.00580103211824553
0.0297513124889334
0.023974096015946
0.171987764387971
0.127868536465512
0.0604863204160721
0.00676239122207596
0.0191787388591354
0.137959384501791
0.210627940196631
0.0886361603121625
0.0636750591350581
0.270288702701809
0.379755295404673
0.36696158013963
0.445132684258828
0.521887382116356
0.484304766617098
0.543267238579137
0.533533570075461
0.602135365456552
0.56481327847441
0.478847905755566
0.469388300365702
0.0070769052211362
0.0068498609084277
0.00561592084655301
0.284069834616298
0.202218006768544
0.201067164426858
0.161417893781375
0.269260603895943
0.0106293162385009
0.0361007554681691
0.0419590885578483
0.139753244515008
0.00550658878296547
0.0759728248344794
0.158994853817721
0.35792750682603
0.385477282361138
0.536884207512272
0.539016472670447
0.398809146606164
0.508688503585694
0.445731265059309
0.504473663689878
0.513158253026428
0.582116751632658
0.50388677026576
0.508914836507944
0.446480524829048
0.41324924944728
0.266381406131498
0.383582949990415
0.368240721459343
0.449918668776774
0.414690832202434
0.303181884481373
0.272799908815211
0.227737046569861
0.287831309478168
0.381410506115271
0.00514932370148502
0.00439664665326984
0.00540791748768093
0.00569615666459218
0.0495664921338843
0.144099870024868
0.134429864884436
0.0701708030248004
0.0353672853320283
0.0355116120070862
0.00199246474727904
0.171480314326625
0.213529982811963
0.0728126104196051
0.0199080676586479
0.306126043175928
0.423951198971024
0.355434271955304
0.393171412672038
0.567720781472282
0.523170240176785
0.566930434728092
0.581933812596141
0.607951984609679
0.603985150890949
0.63090717740324
0.579141126050208
0.615688305183327
0.533529427237166
0.499484316932676
0.453250816513237
0.0368051434245682
0.33677515914886
0.246079341298359
0.156817879197868
0.180200781716771
0.332006850099523
0.249708879486411
0.0387709132050708
0.00722959701596023
0.0677519950023959
0.00789473205376534
0.0813756017857441
0.0351483971326106
0.0815691331623438
0.229326672842854
0.392784391018928
0.40009815476648
0.579436758778911
0.546107123339502
0.574027993070968
0.539038810199458
0.528847805328546
0.500597853580368
0.438859293197825
0.537826523751698
0.596360550547961
0.628249691364837
0.61880382921043
0.521230188909672
0.502266746656699
0.441178173163699
0.43637861925503
0.419738299130226
0.408551769093194
0.38469876079627
0.374137240238027
0.448457282242977
0.430996247793452
0.35130397237197
0.251581377220334
0.335383171052711
0.222164295208212
0.302504619023991
0.165569302447109
0.324252120775767
0.390330677332844
0.0268275873016253
0.0239805432098877
0.0588772734639552
0.171151701442257
0.155063825230596
0.0630706359266078
0.0339101825764489
0.00705226296797299
0.00267937603705387
0.195762596668279
0.135320530118904
0.268718043887627
0.0431219533491496
0.0160122822814531
0.304257699630334
0.464023239887632
0.397630893880414
0.605859165457927
0.557382740994602
0.59278791103454
0.627404120463681
0.639912296126013
0.627102384948102
0.617216588089029
0.648221756792506
0.658541017290699
0.594552466086861
0.654602945047232
0.568380267395467
0.545618244662501
0.485764236480499
0.0104351450141706
0.375031733523622
0.314727305263492
0.285578324687297
0.158807600628626
0.142503881224358
0.169671951499083
0.370469988243902
0.352077812243096
0.238197660129163
0.296358604680852
0.0795297119699455
0.00770162212441418
0.0645467462328701
0.0293072592135614
0.0635997476807589
0.0366104660332896
0.0694027436089113
0.225427937481737
0.28006586297678
0.403095247370329
0.584827159767574
0.567891596370786
0.575144406560399
0.533466587211898
0.503684983805488
0.614809263189388
0.679231301258246
0.674998513635812
0.566982201245693
0.565091688148798
0.530478615543074
0.518923294129201
0.489736664960439
0.445196489333799
0.47962556644754
0.420901934278267
0.411385564643699
0.335632806465866
0.472003748704969
0.442439318348214
0.485493391775694
0.360745174986876
0.294577202132352
0.235473158904592
0.329426924767256
0.29398917175392
0.170926796078835
0.297852697591148
0.326792131591883
0.36986638947999
0.393841839166625
0.416373243070726
0.00501673626266991
0.00573809310295817
0.0296142078641485
0.180716435421124
0.126643845392896
0.130458332252807
0.037573823481349
0.00569530432473528
0.00633658124417785
0.246428810337127
0.182439329288571
0.12599522379268
0.30449791307213
0.0546091538624572
0.021032114351981
0.351044339108284
0.474443710561089
0.440813364175436
0.637975455598237
0.582258310718316
0.637484616215111
0.683570062217177
0.685272180864263
0.665468705593518
0.694607509590212
0.663648582744134
0.708405247321978
0.643934275875269
0.702644899121489
0.597984777732615
0.567296689343637
0.551648706671502
0.0348641326225032
0.0315387037527987
0.420429579363252
0.297517995887017
0.289330039983574
0.213494022632904
0.20222815567025
0.117999363701774
0.207856741569112
0.119018818933257
0.396761154332
0.390356337213238
0.413120628197502
0.298043190246848
0.288127679953411
0.170101692747615
0.0595249752460845
0.0365957942558447
0.0289079952700594
0.00536199769106055
0.0360734850142171
0.00585067038038597
0.152277127572262
0.259507450789208
0.464168250574536
0.631499393942384
0.607761159804296
0.589027558091064
0.535119482971184
0.568867294076527
0.524512096837257
0.483834061593228
0.649994218484723
0.690212844241926
0.691774120272012
0.705833991648921
0.601054704522438
0.60771144094249
0.549815162360814
0.569892670970047
0.538667527547944
0.526529353363189
0.502934399655884
0.407280640392105
0.489923150639626
0.371022356831372
0.437340367945889
0.508609354169542
0.48930927116047
0.458547727203539
0.551954814404924
0.46911871548328
0.34478332864349
0.243896834342413
0.308610613434808
0.258065757354502
0.19510080409684
0.351913043363907
0.282709420716999
0.159113688806423
0.309249390764135
0.334211901375077
0.433185272248597
0.456762076883712
0.00587879346831473
0.00441320814655313
0.00692395512849829
0.0642469856190874
0.159948301912112
0.108637591497353
0.162484977024151
0.127072498756474
0.0625439391895351
0.00406374155483216
0.0336838148530335
0.256665145574259
0.208220569473997
0.15630930320843
0.0893608025663285
0.300453436331181
0.0533277898193258
0.00288047234028527
0.394801499304143
0.514922031798822
0.456798418013558
0.635452221853466
0.687832219896028
0.714240111351628
0.701900725732283
0.729537105405636
0.664093746505464
0.701635688860966
0.739606001724742
0.730059712573553
0.706403466874389
0.757717383174932
0.672450418653656
0.638438928173656
0.751346746448494
0.716532040922122
0.587324391236894
0.556951320345278
0.0544639451518343
0.0072166271209157
0.299455202670337
0.358227399000067
0.203962066261529
0.239118209547845
0.170152757576029
0.187152584199651
0.0643113788049327
0.133703361342394
0.46208088901823
0.345999923513159
0.449713659187898
0.421606867541434
0.445497920290321
0.358174041377962
0.305143191609668
0.288714054231076
0.154412431677684
0.0274343641175802
0.0362104685961147
0.00456048163903191
0.00365562506047513
0.0484455174843127
0.00496872073397616
0.165655688962924
0.128071104791266
0.270269126015222
0.482902820453767
0.662365500349829
0.657176290837551
0.632348467796371
0.51028317291771
0.606720455104631
0.557967860337595
0.623113237538609
0.539834384949632
0.490960161637323
0.663034744763368
0.745598159489664
0.721394502100552
0.735965945624927
0.615064915830139
0.650071034487981
0.592235764476169
0.597810455584212
0.563258403667297
0.61715537907445
0.579703162546497
0.582923530374561
0.570801594484926
0.489124626604012
0.449950056348502
0.512784440371032
0.301766613270894
0.403945496942534
0.456958609030654
0.514971770686562
0.562443973655447
0.493993684264514
0.411224496537597
0.207875881550221
0.240820034881522
0.253322449988106
0.395465254739782
0.225769295873654
0.297344079911448
0.292411644681728
0.134102621997303
0.369830397264152
0.224462860783352
0.386608376249972
0.488799302913423
0.475810919450917
0.031730934008859
0.00614585497358359
0.0354338255055615
0.0616918184490273
0.0426130989834322
0.117944836856025
0.140206627781553
0.176142115177206
0.059669268231202
0.00580194730271498
0.00945110332830818
0.0563269392438555
0.19532027928534
0.115001311819887
0.339898177200018
0.0302152616902294
0.00358436480887692
0.390479096763656
0.506484557733377
0.674408317506708
0.68969848195536
0.716017209717782
0.740434949513511
0.75065864135177
0.686372829525048
0.750191035966916
0.739710520205203
0.773769822306626
0.782575633472467
0.746511041298539
0.786402035030176
0.735304789209121
0.761726090460059
0.787346574741065
0.683175873296185
0.775260946005341
0.74893840936038
0.633996510501338
0.0386774550015443
0.00562894353003663
0.359342553866089
0.382673173179201
0.190770442761905
0.280389074937061
0.236228921013927
0.16447826524903
0.159664292587897
0.229779794029944
0.17450408471841
0.0688037974972873
0.517653425534785
0.45834926974822
0.355693772198352
0.461478242884779
0.515609788804371
0.407802490055636
0.404022447168122
0.346579435136851
0.30428667171618
0.318157721311781
0.184043386150862
0.00568476122011444
0.00550958762286198
0.00517290829008394
0.104612466943375
0.0349290859161506
0.1198218123519
0.120096254054896
0.294497010738101
0.528342913334868
0.701597830003734
0.665790897331961
0.681369668526608
0.65934541444671
0.660079078855591
0.529081865326924
0.60412843163584
0.593463434865497
0.658782805767239
0.647231029475608
0.523170964759789
0.526613860724076
0.50234241488546
0.721170789411857
0.691559725940627
0.729235573457632
0.778095574306651
0.751332859689491
0.677845519844911
0.632283946908007
0.642728451569859
0.606782191281471
0.631776965958416
0.654047588336881
0.573298162140763
0.60692410005759
0.581414665382183
0.525083935140546
0.469968831820424
0.507917620009639
0.436548000375859
0.26867661579063
0.432392447946252
0.532042923595199
0.607844852126013
0.511773322411343
0.423243184932479
0.210182135024714
0.29079720284267
0.223380420376076
0.278685782779442
0.415992400229746
0.229353244849932
0.226110078146921
0.341983983512679
0.321388797403605
0.179410411916531
0.361810278952024
0.22357450625762
0.399002017926182
0.453089420189748
0.511470054509265
0.498409966231817
0.00693420373484812
0.0302797499427921
0.00500339497452695
0.0337905376880213
0.0596463099348873
0.158642959700565
0.227476946147132
0.155271399026514
0.0329414550882144
0.0318001248373167
0.0323747516689126
0.0299067132587272
0.187275924484985
0.101424868535932
0.0512961215861939
0.0180811430370818
0.430189845977076
0.737276469811878
0.795133811466086
0.77067429986907
0.793474777075036
0.724071513399938
0.776895650620587
0.814695352173521
0.764140011813271
0.832328165387794
0.815963980213424
0.813202236129474
0.82198289873341
0.749194425951891
0.799294732604917
0.833298607426334
0.692148176644864
0.714530191848209
0.826989551446805
0.775757158777957
0.635034377474339
0.680632553929202
0.00713305265600918
0.0656488317512505
0.00724928183210085
0.333827646716366
0.370813296974613
0.242862037040069
0.279900897958453
0.222679916392893
0.205922163344522
0.14321966088357
0.275702607937591
0.101811179241116
0.214827979155351
0.0424920175843067
0.0408440709376471
0.555402762636172
0.482600551287801
0.514595713321462
0.429313377950316
0.541299933528154
0.387841668085054
0.457924131521473
0.405847030668634
0.315027783049176
0.341708010161401
0.175178996130796
0.00399603388239134
0.0199040691268601
0.0232976600729324
0.0607422518881562
0.00572028198191011
0.20076245556014
0.0671874011251559
0.30505026609744
0.602563915523464
0.699654647695258
0.703618802494573
0.694848681439234
0.678985802687537
0.633047556406951
0.696633622528396
0.692873950986741
0.648707926355248
0.549449502406059
0.573877048903769
0.546205544342861
0.756556461890157
0.730782002863749
0.755892059300941
0.832063760176608
0.782696219795773
0.71626116776391
0.711421525281259
0.666500113703296
0.646639249664191
0.646544779482568
0.602362568709044
0.670627472541338
0.678624119558328
0.594993825460608
0.616286158644059
0.603484076034595
0.602450277615595
0.578747948554056
0.486294489941379
0.576548792294733
0.423021492522429
0.29526280520052
0.463320682641218
0.41275415084498
0.568210569327694
0.624461553474595
0.658914769861836
0.558435896333525
0.371999314947415
0.306246956079237
0.265335448969391
0.234400029207838
0.262101658493238
0.450762560812682
0.21853235101432
0.204361785934303
0.366687909909461
0.32436842964457
0.276869050012331
0.173258057085386
0.395610769004462
0.177381151137116
0.41207737106751
0.452041944521227
0.511643142095632
0.551197973549635
0.575144498216484
0.0069691842599146
0.00698401518789364
0.005215414100923
0.00391335375404181
0.0335464294345506
0.0649228104597735
0.234341443210631
0.160959538909969
0.0631242770008686
0.0280731422973717
0.0422942773864583
0.00530009980468531
0.050558631748195
0.142569523654476
0.0603057141162153
0.00429601678900797
0.471083595076564
0.425226188037609
0.779423991927419
0.822488979031475
0.810320196926555
0.797605114660963
0.825000200334164
0.801964013581608
0.721805773421715
0.835331668204437
0.803268705109416
0.859220191665628
0.7500909674501
0.804962919240148
0.854141607596256
0.853142928980662
0.842042852524427
0.852733872272965
0.774629803084654
0.839475117943583
0.875350615027766
0.738440611243049
0.810936885398617
0.864728994136037
0.646751265209638
0.720944299894102
0.0289695169476302
0.0324525811789633
0.368040958505846
0.313686454159011
0.443759714199024
0.326424219020901
0.234459529310737
0.249499399919821
0.313836070054517
0.301936977154254
0.201833474652566
0.21168247415495
0.165731854430744
0.102352870611668
0.277198149284205
0.270266943844425
0.0552636306302828
0.13653845865482
0.0453639543499129
0.179302388348178
0.0442051518549699
0.610674453078909
0.55930548780013
0.521304689670296
0.541542303318317
0.508300327988563
0.479004994694798
0.535311695524983
0.418578124251664
0.456661642290308
0.461517963092132
0.380918625339289
0.336462534037454
0.162240155520118
0.00471544030132721
0.00396987936270146
0.05811461938709
0.05757032956805
0.0302163132386122
0.171322151059553
0.284578716800235
0.639007878366421
0.702608933237866
0.732434229960183
0.621838214891348
0.6463175831927
0.733496013649257
0.71515954751344
0.703001800993925
0.698870675839455
0.606685089720768
0.675649407495885
0.574400798595158
0.576403392345243
0.544247209546645
0.770488781761842
0.753992566962264
0.796523406865468
0.828271533818661
0.747659930776461
0.710641098909226
0.667284463736081
0.631596631787458
0.733506436595443
0.635757991161706
0.610028779249267
0.711555743032528
0.720300767571209
0.643769067805806
0.714210294938291
0.633254173329687
0.591840201379418
0.581340507141029
0.541490188422729
0.586756623787888
0.459085457540875
0.289917745890353
0.52865721538292
0.432767250456492
0.582636166313337
0.677015613176703
0.393502349689693
0.284988569709391
0.297730599768018
0.216731711990198
0.192071829524117
0.27166228281429
0.425482262757313
0.502406016781049
0.184738533280034
0.178291699854399
0.238827580156415
0.370144984164893
0.366149269063575
0.327125057764667
0.295121748134693
0.103583623523751
0.357169325962032
0.447336823134774
0.0674147991235122
0.481334910909613
0.500420070948066
0.544814270303832
0.633443424667848
0.58418462180204
0.00732892928987939
0.00707308586068901
0.0053540580191724
0.00470906253146452
0.042590712823174
0.0314310009424828
0.18162534322529
0.203722080047006
0.0482248458871586
0.0331411937410215
0.0106832634134928
0.0903976079821662
0.00685945802925656
0.0403538660996453
0.0309043508385718
0.134838214396045
0.0263738132321863
0.474613102479603
0.420097750230202
0.796526795306096
0.838386880768792
0.865660310079858
0.820016054344153
0.82996340503802
0.821053687974295
0.870937733722072
0.823654582567628
0.764122882011746
0.863236637163268
0.812329316297171
0.884062298895305
0.789816345351467
0.831303031977108
0.871465966314648
0.901416394078944
0.874951584079915
0.881488878979638
0.879886861822832
0.890487933617358
0.89733142431907
0.773483982975783
0.896030333156113
0.662747338448258
0.7620591826985
0.00629092788717457
0.00458518903439253
0.420952461914995
0.341549531338033
0.42094430736187
0.364176469595944
0.221354136984594
0.234999471861464
0.266370991950471
0.363978515696051
0.32785065777883
0.20695092325943
0.196558419720631
0.114580934292845
0.221379866490584
0.299920746607034
0.0347018258226243
0.140969790991562
0.074853089891441
0.0241531593902906
0.169756107800342
0.0305458946097808
0.661587517917912
0.595333031220222
0.50869927382086
0.596803283994293
0.51017934050647
0.498604549063803
0.551930475855955
0.447221025734874
0.373061866980911
0.510964140814525
0.427329165367463
0.470035077846912
0.453103370577357
0.370808477680638
0.115199130359559
0.188947592931382
0.00428777624396768
0.0577117289503454
0.041232767968057
0.00513566238030731
0.180678422811391
0.0849239290610642
0.38700955922932
0.716452328283127
0.759380467652715
0.614475212204403
0.697591199460321
0.746594212480941
0.751792389712241
0.71294279672027
0.730849094823633
0.65042120739351
0.576819472306274
0.583225152233827
0.557912603264151
0.808784933241587
0.774734761519906
0.800435704500875
0.841629931013807
0.757547829068218
0.844067958261442
0.847738673126316
0.782320730447683
0.773916188677591
0.761345791711406
0.705774388215233
0.678741856554819
0.754585386871594
0.716829315373464
0.766390386863907
0.668778984810324
0.630868744742024
0.746402053642094
0.743401613623982
0.724236128236031
0.623071459891788
0.73776514608341
0.650825602720036
0.606753218689607
0.614210910827157
0.473528844059389
0.367451006148879
0.563656437935063
0.579441357661411
0.702649630573061
0.433700538120713
0.286561338747837
0.319323974331743
0.24327710434144
0.360066431213728
0.234516079130701
0.2038435645313
0.125943785985056
0.234677414717006
0.220808088551491
0.346027836177737
0.467658816874072
0.510074349200835
0.207947288578943
0.199224027540299
0.242680381913741
0.325957991979343
0.352370229744946
0.396452549589797
0.368045227171799
0.267222543180819
0.0444195692339595
0.395267963900571
0.505893291040135
0.441993229543337
0.0373459838092138
0.530738333449695
0.522601980990022
0.532752790525793
0.565043979796562
0.653268327259074
0.616757763235274
0.575974173273195
0.00729526276581213
0.00498322964737588
0.0283675096980047
0.0111851375135274
0.0560863924705224
0.172807461209422
0.02857703882809
0.00742648257643275
0.0548196056556468
0.0829394337771507
0.0818318228613101
0.00720632051040025
0.00508581002741715
0.125614996550617
0.00529256566612386
0.0439735642515402
0.505683175962565
0.477717059116693
0.881715208246695
0.861797440499409
0.916449670614115
0.868934615649171
0.868764459011791
0.856391037457093
0.928461348401295
0.782866739916701
0.897484644879154
0.824404723364931
0.849594207450976
0.922726115478491
0.874252899447113
0.824644480354949
0.870731682611475
0.91822983701842
0.958364704853548
0.891070151127495
0.932401771620367
0.901118266203867
0.898080652372889
0.914417669508446
0.943582424619208
0.796947083633803
0.931912961513328
0.902600343383706
0.633649393888945
0.767181229477186
0.0062082197683439
0.00300249487152679
0.43762299795065
0.413668530055686
0.270440816851643
0.447543299925039
0.375206531485757
0.277163542632188
0.217616010138496
0.255915738653205
0.263949644668672
0.39976528830283
0.350354427470522
0.354271186504723
0.250190347746505
0.151583396689837
0.225498101985443
0.0620208685361282
0.0940201425210626
0.165935993492234
0.34273952031524
0.00428382939765466
0.0389646471500746
0.101189611170609
0.121962056014796
0.0885367864045219
0.068354368836579
0.0330771112182831
0.234227032335962
0.0375551481036818
0.664115847249531
0.619721871965326
0.56869590452604
0.493599366690064
0.639025149064601
0.498319996959405
0.481433006260767
0.606472802339709
0.490069112243277
0.49439815806181
0.549301217505501
0.452867679076766
0.509934267146528
0.464980532407115
0.397692601367405
0.0807881351081055
0.1468037292445
0.239114269148124
0.00520505711274116
0.0303913264651507
0.0201364394051323
0.00496030276210092
0.230930224840155
0.134587702024732
0.0811099753480015
0.0542589104884471
0.382566597940814
0.40279054733254
0.750309169577037
0.66336410243475
0.730412339580732
0.790817632082672
0.783765976843488
0.803272741862774
0.769908058926791
0.786741623952243
0.765320381432112
0.670074630273225
0.644586288695833
0.641181688786216
0.631190288310875
0.821164664087105
0.86012636343276
0.875217762605189
0.83793796216141
0.769853235409347
0.867574053529324
0.810647157437403
0.78307317550554
0.734837703838253
0.791248124544089
0.700287541842856
0.727048641580182
0.683032388647232
0.736202189464491
0.789711280575879
0.721815021963683
0.773417091872335
0.745628013478592
0.75766520603058
0.65679844325828
0.766504622579695
0.646073068448103
0.631853991714031
0.639271597972233
0.442294714866181
0.525587534567959
0.376851317925247
0.585654798430053
0.74059696199512
0.409702848242435
0.323035346159937
0.274971964038772
0.364538174928102
0.348492232090055
0.161830431206391
0.370775341040714
0.221111421157699
0.0690211959320607
0.173833161685245
0.289482402002991
0.29418181027781
0.497930205986745
0.544193277054598
0.553557071813325
0.186849558787466
0.137465449248485
0.198267836890255
0.321930495026754
0.385333362616883
0.405760355129679
0.443852105938595
0.323756905783567
0.240641091899058
0.0243744361012063
0.37247861806276
0.496791178193379
0.541989889828682
0.420908033782966
0.0111657288695829
0.00828105210711037
0.522372575016734
0.555378546599853
0.621458312056539
0.587126543254375
0.647051544941559
0.622296204010091
0.0477570143374349
0.00812902752023335
0.0383135890209156
0.190298489072131
0.0569824626432015
0.00856474070293361
0.0082090485615369
0.00641101016668057
0.0715622014452811
0.00755649766461373
0.00546326949695644
0.149739982408081
0.0799572154301566
0.0180223039661609
0.496136368222681
0.915964106007826
0.909389975887025
0.943885048059644
0.934355857601317
0.896489314413757
0.891102132429241
0.87312941360367
0.946370875143444
0.96624341627516
0.951030337199215
0.846026966220908
0.84996714051105
0.853499363505428
0.965106477607736
0.919760029965302
0.835607683083752
0.895706234065012
0.974032597614798
0.943516563688213
0.98628317477739
0.980803749806547
0.938778335254874
0.86404988230481
0.932727500472331
0.929677891999341
0.9571614681275
0.981709545100004
0.963347087927217
0.822195333589646
0.934489521374896
0.968450822651235
0.649992146236619
0.797029376886378
0.00674362445669397
0.00319191419163877
0.404693631978663
0.380073057429827
0.250431069934069
0.270029533662029
0.363397769918628
0.277248053918719
0.254481575106918
0.313600342571206
0.126139640639112
0.230664578509996
0.30044052673064
0.241124976829866
0.408610416547846
0.367366955361901
0.252709879525795
0.135096706476478
0.184841171116869
0.0741002415088987
0.039930434963267
0.0570917831723201
0.181239635680532
0.342694540279665
0.00484390557601052
0.0473580918068962
0.188254956737049
0.083895003029288
0.073871734916769
0.0805292830892462
0.0354394030089278
0.00489980244347141
0.258176803895749
0.685910094279128
0.668784522018284
0.642806079475125
0.59407192768999
0.581798487473807
0.528987124043122
0.635675075494234
0.674232777749457
0.48150011413805
0.585271732279805
0.625940119235621
0.539146507378034
0.515059251876746
0.536128519745667
0.530078287127875
0.592630463361186
0.446965375565845
0.560445889231736
0.506814695248581
0.41787384204406
0.117183678926107
0.0225544175543761
0.0051441024280232
0.297096872264036
0.199151574972194
0.0559295764780794
0.0400918158956447
0.398349077120817
0.781724789125942
0.709254874569566
0.725905228741267
0.849958985245735
0.840914958643388
0.838935391894678
0.76772039611124
0.804834033908092
0.807125898605087
0.792946532166687
0.800420320944607
0.627853272067605
0.672565258633539
0.633355595241717
0.875057946556199
0.902902703051441
0.862334413312895
0.911312377586524
0.830124148945948
0.849826321642146
0.828834239946225
0.754241655709129
0.831755058668068
0.699815082960768
0.731528244611245
0.761335426427478
0.667813132085872
0.6347036002164
0.722081465854995
0.752372729641258
0.751065129448425
0.754687577794116
0.839020678621896
0.705485990247566