/*--------------------------------*- C++ -*----------------------------------*\
| =========                 |                                                 |
| \\      /  F ield         | OpenFOAM: The Open Source CFD Toolbox           |
|  \\    /   O peration     | Version:  2312                                  |
|   \\  /    A nd           | Website:  www.openfoam.com                      |
|    \\/     M anipulation  |                                                 |
\*---------------------------------------------------------------------------*/
FoamFile
{
    version     2.0;
    format      ascii;
    arch        "LSB;label=32;scalar=64";
    class       volScalarField;
    location    "2000";
    object      p;
}
// * * * * * * * * * * * * * * * * * * * * * * * * * * * * * * * * * * * * * //

dimensions      [0 2 -2 0 0 0 0];

internalField   nonuniform List<scalar> 
110266
(
1.37888189264454
-0.369822450907869
1.08569487320585
-5.21989066201651
0.684405256397314
-0.547210535503156
-8.29413003605833
0.435437907465969
-3.01481089470967
-3.53177902742056
-4.63129509162857
-5.21147067786684
-1.20884667949434
-10.0398143357321
0.256825205272955
-6.14066603684227
-6.19404189219163
-5.58552942979885
-0.663450851786387
-4.73678955134048
-1.78816547589966
-7.32271164094937
0.973152682398112
-6.65265324710696
-5.33349619658863
-5.22097874137646
-2.50716964784577
0.921111242356302
-2.28819675112148
-2.53868240053094
5.29784285887128
-9.46358555526989
-5.96653494297893
-10.4830256020347
-5.75953796407785
-4.70825635298707
-7.76617095421392
-6.39143961475652
-3.64323493252908
-1.66373577422291
-4.79383518140987
-6.19422907458936
-9.20683307962255
-3.57125130851849
-9.82455281560582
0.911416692560815
-1.17839643244145
-11.1787587605907
-9.2100532264183
-10.2404325426021
-2.705046151733
-5.39645955278168
-5.36383465830362
-9.52078077063874
-4.69018698421548
-6.74004141044836
0.345855702425358
-0.816724599032504
-4.86870850646819
-2.18627052601841
-10.4163892447376
-0.00949382134996314
-6.98945360420784
-3.55604984005606
-1.69283609568859
-3.49755849929861
-10.9826768036364
-12.6832679014146
-10.6106911805603
-11.0102163490749
-0.190775052657766
-2.03354440683575
-2.98996434885419
-2.15495149552769
-3.75056606062487
-10.0158711509936
-6.00415555802916
-6.54822165327219
-1.02027788667569
-1.4342083601547
-2.17251412564473
-1.79549849851746
-2.66993722607975
-15.0948881832689
1.98722187328242
-10.0689837309638
-3.55980609739967
-2.41505202157271
-1.27502194529
1.65146646870186
-13.0682152223706
-13.2674104593098
-12.7522459639658
-10.5534167471716
-10.3130449687831
-6.55443852705099
-8.72609685054752
-5.55687677614062
-1.27154305987018
-3.42280021183872
-5.50897079027698
-8.8015832677567
-3.90616460252443
-10.7860967422143
-4.61207155601905
-4.30660925366036
-1.88645136434804
-4.09984100835923
-3.02054216596898
-2.94399721484508
-12.0176621655015
-9.31023995408047
-15.1343645744843
-3.42470466154149
-15.8339903508159
-16.620844680195
13.6045749445826
-1.13448883893186
-3.5083411460733
-0.156940414947738
-15.0570805470221
-12.9796092250008
-12.1608374961391
-9.42224003349131
-10.826646289426
-12.653401455237
-9.65091139337341
-5.41732732944282
-10.4726350261351
-5.26999183485404
-12.1882265808261
-11.161752494691
0.977043184265532
-7.56119090649846
-4.89380425807223
-4.49975632181113
-9.83840563837013
-9.43231087994664
-3.81518761759679
-8.03466065404152
-7.85382831184083
1.62128513064688
-2.44659825366753
-0.770313830556822
-1.69998645612368
-4.42221305318811
-11.9456192891587
-11.2493703602295
-10.3503573406775
8.42914420774906
-7.57990759599722
-10.8410318929151
0.617493984807964
4.97345964290598
-4.76531723944474
-15.0432263673546
-13.4132228588835
-14.0848560096662
-13.6161953740211
-5.54711954613965
-11.1079829834897
-6.30897405013809
-10.6843370739802
-8.18508033048874
-3.05767557287107
-2.79324169820369
-8.84790715710491
-6.45353701028017
5.29965662502612
-11.8627993288067
5.80242463909952
-4.97873147446261
-9.01356625748565
-5.56719719455149
-9.65932891854417
-3.3246642357719
-3.62633688932578
-12.8536535534609
-7.73947715204799
-7.64814081917895
-7.57990460551838
1.10499085449942
-4.4965505611454
-6.22254886693411
-6.06118816865344
2.15839274643402
-14.5515450423765
-5.89115410286801
-5.64898170777328
1.68696067827472
-6.90913046052836
-6.37803723322308
-5.57576584467738
-10.2323110793067
-22.2220199179341
-4.42523495299336
-13.9527130262098
-12.7296705391617
-13.3907038495751
-10.4961074066502
-12.1514518608645
-4.26952499630922
-11.4719945334087
-12.9427828386184
-9.83157174321419
-3.81618925047757
-6.90655227913194
-14.0215456102195
-10.7569117380853
-8.23571436767058
-10.5801037883323
-9.2026624413957
-14.3911891458674
-4.67568123652005
-13.1596458760125
5.93715382112849
-2.27400855677888
-7.44810637313826
-4.37472935663203
-5.73656905114531
-4.50442781067577
4.418622883993
-5.34488186630375
-12.7927827274389
-10.2182120220307
-8.12056216170978
-6.50853276216415
-8.4172908393137
-7.72129738069281
-1.08256429976933
-6.23859656527425
-5.78860183895149
-0.045100510227637
-8.61949025421957
-21.9346806170091
-4.30241713898735
-13.5613185045854
-6.33279413578323
-22.7618193506833
-20.3099138597861
-19.7719612308441
-7.35737197861232
-16.819150897177
8.63663211685175
-10.4310130415633
-14.707908369387
-15.0314951834961
-13.8629042826476
1.75242573625302
-6.79544902086034
-3.32604661968588
-8.77712261785234
-13.8164662384413
-12.5631116932261
-15.5831001348138
-12.9623913412095
-13.0360988298787
-13.1062954608458
-7.20394100911853
-3.49857100361604
-3.08648078816419
3.1863369572412
-7.32147183680098
-5.17589770097811
-12.6928546120839
-4.03023776017897
-5.42900506202366
-18.2372276571292
-14.0177226609564
-7.1245080120927
-8.31061624406255
-9.38647633543427
-3.20897310715184
-7.19526514676026
-6.82356753332439
-7.94235742268736
-6.16697182864341
-11.8612621309128
-10.9385147544336
-10.4907587310948
-8.23054958467485
-6.10756852341634
-6.94165509206075
-10.1836968179457
-7.74016468293071
2.07609928414465
-2.96026294732407
-9.98537207724219
-4.23951052017847
-2.3443978290784
-11.2470611997462
-9.67936032397528
-8.84949059986533
-12.2360163601004
-16.5219570473871
-30.0836019773301
-5.87236832678776
-11.7331187268896
-5.5888618437642
-13.764994701584
-7.24012332230235
-20.9298754333352
-14.4371132199529
-15.0973977128307
-16.4880954454778
-9.64716276872435
-0.136953014691548
-8.61244906701956
-10.7396028738001
-9.50271603881089
-15.3354997250309
-14.7427024225223
-13.9933094196486
-12.3745689949195
-13.3284126238653
-11.5645536770483
-11.9588307998558
-3.92832196593817
-3.58131910119762
-8.28101884201506
-5.48510657288576
-6.30444009620295
-10.5609522580069
-8.89079398634708
5.90540740449802
-8.04778326734593
-15.4581588759078
-7.06554256715566
-14.5355323209453
-6.84549263880675
-7.15886035834156
-3.44327165259691
-2.92634388534585
-5.25945992105617
2.12531218931064
-4.82754691724208
1.75689279506656
-7.91404986735531
-11.5339125871325
-4.92172465099348
-13.2600014917858
-11.903426263347
-10.374537637655
-10.5012349676006
-10.8045438368274
-8.95198330195245
-5.88787242192987
-11.1604442638802
-9.48547724357677
-9.94506651968289
-6.13211474280414
-0.805205647077268
-2.57855113816009
-3.49864158624594
-1.23710210789247
-3.15307239031624
-7.28565080195203
-14.9234895631893
-7.23686631332652
-10.6877317174253
-22.5002625263992
-11.6857443740959
-17.3559704658155
9.76132200290891
-25.962527258661
6.16801397717061
-8.05690851504482
-27.0936985538499
-24.1211374051158
-7.14550917387422
-15.5537325267824
-14.3957465081252
-12.5768974928011
-11.4029638379752
-10.9664497578533
-12.1190913367576
-7.3315351749706
-7.87333418822739
-5.19475961498222
-15.2335793885643
-15.8294596813124
-12.792210200417
-15.572813319155
-13.5085478811714
-11.7559129820106
-13.9061442549281
-0.682060919843395
-12.381344122016
-9.96367279702937
-0.778234665489856
0.856298165488448
-10.9293489657937
-11.6240798081446
-5.26146804494813
1.72036454301459
-14.9660765068154
-18.2676510353852
-7.93095067865931
-16.5093957182379
-8.03581141119746
-2.79324433900245
-4.52989202159649
-3.6414937666735
-0.349302608898175
4.21392995595066
-12.6674206612278
-11.1006423742796
2.68619539277261
-3.11583540372602
-3.83277291091545
-2.01327974124867
-5.13560401501351
-6.76328114393156
-3.95989113877991
-0.927029181393373
-5.47397242322203
1.54030462698375
-1.32258107980483
-9.47947647801672
-9.12515760299912
-5.07043832742262
-5.37994385991974
-1.11314263946083
-11.1007185831268
-13.0197290739669
-9.22539180006441
-2.06573343389604
-2.54104297030422
-5.68273586462419
-7.03870846313172
-5.55284267113941
-1.49390576053486
-4.67332133212096
-1.35298373718835
-17.5116322441218
-28.9271790038657
0.90005916890245
-12.279833115638
-11.4194918410214
-33.4673882116425
-12.4421748881622
-17.6678645827827
-8.71736353235929
-21.2203963553872
-29.0504647137409
1.15111399494034
-15.5893792758968
-26.8666521684481
-18.4484025702664
-14.2878251206362
-2.56761970689238
-13.1955000114658
-11.1957297985706
-9.3454746387
-15.0267569838169
-9.36025216641709
-2.17672002313421
-10.0743562028889
-16.7011759440259
-7.57305931348439
-13.4237342180179
-15.631559527411
-13.5178731831955
-15.1640827134558
-15.0833158926866
-11.3235935480663
-11.407225900544
-9.48504294509765
-4.93129865959403
-5.63449796030387
-18.3493502708745
-3.16779548261996
4.86011330238323
-11.0539459788187
-4.02858275221633
18.930846704092
2.08705432687039
-2.36775911921963
-6.10817873502166
-7.55159770452206
-4.47332218176606
-19.1174522041572
-2.97548080176584
-7.85173170435798
-16.7345416999302
-2.76638731229469
-13.9556381154454
-14.6435001476645
-8.39793019745746
-2.77472962624738
-12.8754945179322
0.393652742375244
-4.92660113806706
-8.03930857962794
-4.74099904892163
0.384531624213479
-2.21465865848648
-4.17032367006275
-7.45624557928056
-9.13079180542578
-5.9906280322319
-3.53065383159466
-11.7719212097503
-11.8624331381845
-9.33758820787783
-4.27712258245071
-6.94671877556861
-7.73473673472594
-12.6028603243098
-14.1717649969546
-8.42655517363674
-11.6997182515143
2.54493223254449
-1.47508889538561
0.260133451658699
-0.477464281043523
1.06495676150938
-8.11089225009838
-10.0887147260269
-19.6625144753786
-39.4019265295297
-19.1387719760821
-18.9559419336155
-15.1327552464237
-18.6700603372405
9.20016522749245
-12.9697967328851
-22.3051542542672
0.803282081299095
-17.5441216898625
-17.7484777812826
-1.12178249309198
-25.4386835653763
-22.3505647084038
-12.0100879345285
-13.1371962648532
-6.75795167726908
-2.35561556654245
-8.53108021606948
-11.5037391910392
-14.4919423833243
-14.6846389088733
-5.79333455633932
-14.4975694032932
-2.73773581806937
-6.58890128641732
-2.10538677078478
-4.16719647985249
-12.7519447702741
-12.5005213015273
-14.7691436660617
-13.7622411606724
-15.5009093979618
-16.7316186011449
-14.7560956504933
-14.667367041686
-11.8572152078111
-3.71583868215617
-8.61823532902185
-16.6917268217596
3.98249526650753
2.69992659930221
0.793190467141059
-12.4032486065155
-8.54544421104196
-7.61978533810451
0.900507626825805
-26.0117041651904
11.1749622368039
-12.4740834861855
-11.7453007711127
-7.33134676926149
-6.08861339429258
-4.43351395118284
-13.1025423122316
-3.91917073855037
-2.03107956107124
-0.830327530278022
-5.11485020712052
-12.2040490517632
-13.4872512418996
-5.77616100710015
1.1131022847652
-9.68072809188497
-1.10558094665832
-6.44177880036429
-0.558678909673476
-11.0655224516475
-3.34295741284936
-10.2258323750031
-12.7324495114144
-2.2364410530562
-1.50586302574405
-3.50901579633603
-7.82664746445312
-2.58949583511041
-7.33128510164541
-2.88684204073113
-11.991535739975
-11.7181360619379
-9.21415566370081
-8.65282124684652
-5.78465898061674
-10.3513916433551
-8.5143875016555
-8.62338581500983
-10.2612920286548
-13.8258595642519
-5.15309553682141
-2.23702641868472
1.79244378164018
-2.46642419788399
-6.17524332465229
-3.95436198905865
-5.04544736770731
-0.378259906012466
-15.192133468591
-21.6560018437841
-4.11578892591899
-0.165070061177985
4.43582145181434
-29.1338340370424
-11.4957674857348
2.65049107796885
-1.87467334580567
-4.97608398305802
-5.29691032789868
-7.15597728564703
-16.8150289678211
0.74516937546579
-32.3352215427242
-3.53515102431014
-14.3405270863183
-3.22874823605267
-19.1413480206187
-24.1586068559785
-12.3167903696199
-15.8329377613838
-6.94999543217817
-8.49475111780092
-9.56065922821306
-9.81259457097704
-11.0035428279128
-11.7838211922421
-13.2552453976796
-12.365067800786
-11.4643690611877
-3.01293282875496
-9.48831063540726
1.0010390893442
-15.1885159295623
-19.4106828014724
-12.9254614330185
-5.23018659464437
-9.39683202643591
-16.0867821551221
-16.2165671167625
-16.2736015563967
-16.14300877976
-13.8978391289294
-14.6412423507577
-8.66782061228452
-10.2543114868876
-6.47898860564185
7.44481310264598
5.80635004133816
-12.3005779901892
1.66837459540218
-3.27834616493795
-4.93131663617026
-8.96768241165027
-17.0314132654375
-10.2599788348842
-15.2349412474029
-28.1467633980571
-8.94430237314009
4.28804473339052
0.687272848566348
-12.9124890528752
1.80758032296547
-3.42030354999332
-10.9444577608711
-5.85113637409596
-5.55196906139483
-11.5274735794429
-3.36402320125982
-9.31244878835716
4.55514405261838
7.19767929227947
-10.748997904851
-8.97470383257363
1.37890426209042
-9.02778464576985
-10.1200159365798
-17.457203428709
-9.25672797046505
-9.78930515354474
-8.54533022113791
-7.95183296531339
-3.82489741648606
-2.3950070209588
-1.35975823033146
-4.41143206903026
-7.26734951737303
-2.4592111745904
6.25225673429633
-4.13892197695598
-1.33223559679805
-7.21608905871222
4.66403652647033
-11.2207225409703
-11.4527675272137
-8.40566821673589
-8.43035983154497
-8.59992277686624
-8.07834188904573
-13.9620309214657
-2.27535414696613
-11.1725071195225
-14.3597566381779
-6.26809690540331
-5.03167801413014
-5.55452523938592
-2.38901446948343
-9.95742196080147
-3.16154822348108
-2.1860399318803
-14.4937159415459
-8.96024695172466
-28.5818421881143
-24.3559322614385
-19.8658795669066
-12.8325756650495
-11.3099724946162
-18.9461731432895
-0.25435895931453
4.71065882688644
-1.89728417878191
-13.4794783024108
-16.4964365691482
-10.0411228840455
-26.2481927674295
-8.13662858528022
-4.073093494563
-26.1590524816657
-33.3894462270237
-2.93888264453283
-28.1737345067891
-13.7498254653262
-15.2875627316252
-9.45887373750652
-6.15902039067388
-7.01200692453551
-6.82808524925559
-9.84792301830123
-8.89887706305799
-12.9017498129405
-15.2023529612963
-11.6667328109403
-15.0130502407479
6.7591373720241
-12.0210093000028
-3.38899413367851
-7.60164185313154
-12.4080103293998
-7.9692496325328
-17.2641749254369
-13.0461795356305
-13.4776238417552
-10.2256324981847
-15.3990402227975
-16.9632556818358
-16.0906458260188
-16.3458112749205
-16.5534819895508
-15.7125419497861
-10.3052806963341
-14.2939397803142
-12.7867086421487
-11.3496149981452
-7.842776100648
-7.86258384317504
-6.78836649049856
-15.8015681314279
-21.9675910121689
-4.93507941924778
-2.90593021632795
-12.2814866790761
-8.88598502621271
-17.0194437473455
5.71421057092341
-4.96108686038454
-18.8525159097966
-5.13935834671812
-8.56453690300047
2.07653502024239
-12.7080696157092
-16.9042194571986
-2.14293240229154
-15.9146619594637
-14.7066337791345
-5.7639844611408
-10.3750003694703
3.34428337750342
-6.60642385121274
-6.05530934959556
-5.36102602094081
-8.84746676156622
-4.32882944534434
-10.5891547216724
-8.78452447092026
-5.09660925254588
-4.83814359347896
-5.84638798703331
-10.8457166710988
-9.2122072777508
-8.73987366725752
-2.99791508362207
-3.72950772353325
-0.36525804063389
6.65533201187453
-8.78993226266111
-1.52389571300701
-6.90805377082194
0.825399526447234
-14.5047220740172
-4.28283734573242
-5.02296010595821
-3.23956211117512
-3.99312388496561
-13.7348379703819
-13.4239130227832
1.69698530357888
-11.8515500960747
-11.1377958819178
-9.58853031549756
-9.80795312703886
-9.49950476404406
-6.7222095276256
-9.26724296721939
-5.32332437839151
-10.9288862613733
-12.7741589063846
-11.6178313618832
-7.40986278779315
-3.46951927176061
0.106157687335069
-1.69452760977197
-0.767562299253894
0.537807100738978
-30.6522813873853
-12.5959857948138
-12.32038564481
-7.99017222332479
-20.9324328379679
-9.26508962599097
-20.5845607731193
-14.4466865378444
-6.55351261809141
-13.812973899558
-13.9204680668139
-10.8999909378598
-43.514134572604
-36.2427586684076
-27.2937769534893
-17.3965395933084
-28.1927969382742
-11.5063937746789
13.9017892577941
-1.18015164965009
-1.43691504268371
-15.3954698130095
-13.7970681454173
-15.4697092187543
-5.42486050169816
-6.74351846307316
-10.0920238685275
-6.38615695272602
-17.9944058472988
-11.3924426179181
-11.6988473083887
-13.0806113916903
-14.9801574471928
-12.5682598091257
-16.154635415002
-13.6511922478524
-12.1015978451032
-4.33511004606366
10.6909587619841
-7.34477888970699
-18.0889535755228
-9.09689747034094
-5.33453861277995
-14.968314598465
-3.3625683043782
-11.5409104692911
-11.8789912873972
-16.5700413873933
-15.3768708701917
-15.9769326147664
-14.1369053704737
-16.8043528023277
-11.8912455937837
-13.7187057392526
-13.2970839910488
-10.5181839026252
-1.70562035972944
-17.8176436786209
-23.8353721688128
19.0065698718817
-18.4934442140251
-9.97720970855413
5.87577120922557
0.604025969837409
-4.3023848000282
-9.5403620480426
2.43120399093308
-6.27770110090105
1.73347812204862
3.25023919718138
-13.6045742376237
-6.06349962859635
-5.22897896739297
0.65329804017263
-21.5745624882234
-8.45450836626742
-8.98302297333011
-9.07739789458942
6.39322848672933
-11.8090273919319
-4.54903970373549
-9.18110828257813
-5.48167854929653
-2.8226519152127
-13.2253935466689
-10.1812806194967
-3.524920293642
-9.42996480341354
-10.0513583200229
-6.21904166765801
-4.75849115231279
-33.5165746283259
-7.82657162443421
3.63378202663789
-2.83830586972163
-2.39282055929809
-3.81751359008913
-5.76566568933179
-4.26658945991729
-4.01397893303935
-6.52771215553481
-10.3973888507336
-6.56071793510547
-2.88474863288064
-5.39386835604503
-13.4311211115183
-4.97389104481598
-2.51819248121697
-6.60537857014239
-7.25254013732093
-6.59122684537386
-18.6765751441725
-16.5098483713962
-12.442953298913
-12.7082116214104
-12.1529986437442
-9.79702491952238
-9.88701794773944
-9.92373785071142
-10.1315080349311
-5.80111030358133
-6.52256188330966
-8.52909292319298
-12.3807716764189
-13.0493491765449
-9.91899675226121
-5.32589972346354
0.181057004283399
-3.01411538307985
-1.5895286930237
0.71093678555097
-12.9533155579235
-33.7132560220231
0.430090407425537
-11.5052729686709
-27.6203163373005
-1.18141724720973
-3.16945572586778
-0.624390046384697
-6.89728036917954
-10.0327617751283
5.32120973403237
-21.9655478535038
-7.57877063802292
-4.58712042812605
-13.1021427319158
-8.09489218797245
-15.6656303697487
-49.9505293881988
-21.2324500932318
-14.0063364312278
-9.38077800771544
-10.6094283810143
-8.21264639190647
-18.7733768573422
-27.7596099625201
-13.4668906054139
-15.466293983322
-12.4512754263173
-0.284181144931653
-10.7933309419103
-13.543349619826
-8.37417197443544
-10.0590959232553
-9.61966328644885
-8.81174624806971
-9.69646159011275
-9.83947928619532
-13.4580284447877
-14.5325887775041
-14.7319552356178
0.677683711758566
-13.7567638228865
-11.124596140644
-13.5602365597191
-9.35142409782143
-14.3139179528502
-7.96919687918725
-15.0607038700824
-15.0450334456139
-9.11071404686314
-15.2242764750714
-8.41413646727856
1.97926181807366
-2.63426185093393
-4.28121196471942
-6.03389995264874
-8.60009590571422
-7.32173970034876
-9.7560505864885
-16.1648444192577
-15.8205690390065
-14.3455374789788
-14.4249637696188
-15.2830652747772
-14.023912445119
-9.55384902457438
-8.81855534846097
3.27147654895321
-10.8075970758842
-0.507056732977763
-13.1934166586316
-10.5929428078478
-17.8604698227421
-12.6704155080664
5.29477045568706
-18.9303218483268
-18.5785134172275
-4.53743813198092
-7.40433063024166
-10.0214313867516
-12.2233793081946
-6.45899090165945
3.79034942015939
-3.41512559079104
-15.5722539306778
-18.3689282021209
-9.02358656414208
-9.07902290663548
-14.6519849557006
-1.170634465663
-8.16891768410607
-17.6809341532978
1.83821934941421
-10.1776841326999
-8.2836803328016
-11.6011980017947
4.20631666596632
-7.84021769906489
6.90911287754048
-7.61415492666496
-5.13994191225732
-5.80594384952855
-4.91690215235657
-4.393077952809
-13.4060773617376
-25.3454224005605
-5.50965657976095
-10.5498651535009
-5.68550886088633
-9.10651483571347
-14.5453192468312
-14.0065210726939
-9.41866652698489
-11.9224268372644
-4.15035384264452
-4.15236932475061
-7.74535864103348
-14.6045609449121
0.650193098480171
-7.07104484712804
-6.65200226056696
-6.92839753295126
-7.22783888162438
-4.03695784686379
-9.62020640544074
-4.27694616812796
-7.4562247059876
-4.26449349509786
6.02269059730744
-21.3252433951099
-12.1351196155957
-13.066941167566
-10.459145625352
-9.19728724235808
-9.31473347229986
-9.63797462300834
-9.62209996771407
-3.03907410527678
-6.21051622654595
-8.79994886459703
-14.1919242264541
-11.5219068992906
-15.0464435482631
-13.2625726516998
-6.54258065791216
-5.80743270683696
-1.67945832186165
-10.4090975510034
-19.003013421543
-23.0627588013988
-10.5260446576681
-19.7995425277432
-23.5299893155847
-3.39575729159121
6.90149749724226
-7.26324340163058
-18.2384613408769
-0.00332464859095444
3.08238350215345
0.464786059677256
-6.16377393184996
-29.212716326139
-5.095608340377
-5.51716700730291
-12.3953103856694
-22.0133540743991
5.12763292617482
-6.10919000378726
-34.7242544006286
-14.0110442196972
-11.7066121918894
-46.9731168873846
-8.12954417845355
-26.8225281940321
-14.8074667625852
-15.8805751203194
-3.24491583727985
-12.1240332861196
-10.1833560434301
-7.87743704811212
-2.87466526165246
-12.9258455798012
-10.2312461385319
-5.0437529425458
-6.41673671163258
-7.29916841154786
-10.5534877545669
-12.1464270066056
-14.112546179487
-15.0428304133273
-14.0573494321458
-10.1054531893089
-15.163749010207
-15.4677619482665
-7.39525307483815
-14.4754277992234
-10.3448433086173
-13.1773706988728
-11.1326887886682
4.16789641748174
-15.9183031717727
-8.25422219687758
-2.58235974019759
-9.07709857391211
-9.53292235968079
-6.0887031838568
-9.74341341006057
-19.713529520987
-3.27343853769102
-13.3297793223324
-14.0929825911542
-11.6978744412088
-16.1177745395074
-14.7979211518828
-15.8758033237939
-16.1217480847405
-13.6406987634898
-11.6959710519113
-10.4401625971688
-5.23207224951208
-9.766052480135
-2.18721598688584
-5.84921716144311
10.0205636252777
2.61344709007217
-10.9831145138544
-3.55565834909277
-10.6282016240058
-8.95997270466475
-4.34788661940152
-13.0531337568008
-9.33788540500659
-11.7366935317454
-3.62153995404554
-7.25839790776801
-14.0774417583945
3.86171549213453
-9.39991732855885
-14.6359194518379
-10.1651310635621
-5.77552042732199
-7.86528716164653
2.95969538022003
-16.5424916125749
-9.55332563722798
-21.7493451010323
6.28869998960968
-10.4388021010163
-9.93657803219773
3.97091745471187
-7.35485934188819
-8.1209182532773
-3.59843584920331
-11.5602634239575
-6.00945744788734
-18.8522545433263
-7.19898553565686
-11.5004317140792
-3.71558635847588
7.11495965757242
-19.1139572094121
-8.59858330753855
-3.52324077079456
-6.05246870847053
-4.17083482326252
-2.38768145068522
-2.87669291121106
-7.06289824514423
-13.9265748920823
-11.9656130000716
-8.42809895926526
-10.3603657827111
-3.73947429375071
-8.37237765127375
-4.12580583000911
-3.23606009023556
-2.75278008741138
-3.82993208688405
-5.38556337564097
-5.83174061900563
-7.45253392874907
-12.5687523343022
-5.73842870877616
-1.07605124495098
-12.2400813028394
-13.1994495429198
-10.1569168242846
3.89145732127293
0.201707529262295
-14.8131096697967
-13.4612166991579
-14.0863810540087
-9.52712765170291
-8.88550181018601
-12.1982620103144
-9.70892176643212
-6.27744930557894
-12.017495578559
-8.18828314845656
-4.25837859551939
-7.35994257210122
-9.87759491854307
-12.6328869285879
-9.30769454726179
-10.1718781166166
-14.1935889498967
-5.74916591146226
-6.80968330446967
-5.5231497876754
-2.49002489996523
-17.9331331709411
-3.8875441255209
-24.253670724809
-10.3381207461384
-17.7501963321504
-8.09771119803398
-14.0716850477512
-15.1283328309562
-0.954394427657032
-12.3928370949517
-17.021207575289
-11.6796777491986
-13.3153461279792
-1.94955248060233
-19.8321845433268
-20.3524268192925
-8.41696150930837
-12.402063964751
-11.5301369984808
-13.1686932585645
-18.6101244347278
-30.4056463214725
-45.0797405432876
-22.9147963588341
-0.482012458374724
-31.9259668948592
-9.67623710634919
-37.0751101443223
-8.68428264923555
-25.7622065405441
-14.4550743516555
-15.6092819200558
-7.40427520134558
-14.3294203574233
-11.4322783507402
-6.34245742665908
-1.57139243182153
-9.16920089353803
-9.93057246611313
-10.5385497411781
-8.91181156343742
-7.12443621882919
-11.278629923274
-12.2060177644708
-19.8466766497409
-14.3979130830305
-14.3070748019436
-13.9831472620503
-12.06964184046
-13.4249351526458
-16.6725562962223
-15.5072822455564
-15.11721973078
-15.0607729620673
-13.6641426010327
-11.9419649531471
-12.3784052178066
-15.485119565973
-8.6951932645883
-13.8272992669078
-1.01268377220097
-15.6635997330676
-7.71309950390097
3.36004334085837
-5.98333133636099
-2.24511394045223
-3.63180639096076
0.931968406086557
-3.35238271884537
-5.21691323448597
-10.379805039329
-4.84964624703224
-9.08740657401136
-8.06882485449846
-8.98728353894155
-15.0249533266137
-14.0521618552592
-9.45829766318506
-16.0233928389453
-16.003780676762
-15.4010032668835
-15.6600664534886
-7.19539710106844
-12.2318700112204
-10.9923238776833
-12.111200585646
-3.72865958546282
-1.93777699847294
-10.8117302338928
-9.98828819610904
14.2888025155856
2.82834736584768
-10.021512147179
-0.701190155414283
7.0781656828837
-19.8197459426734
3.9079714118961
-9.88060360456831
2.78678595943769
-9.19153149161059
-7.24448812482574
-1.58628409800399
-12.2764736934836
2.78062097559596
-27.8181182607423
-5.06086225385896
-0.703211123807848
-2.77906311007392
-7.87191017200172
-8.69305812797376
-2.67384046844376
-11.6558895361402
-22.6155351873778
9.31730884618686
0.981846775458686
-22.0611942540467
-15.9225553112076
-0.705479986909253
-14.8965848152978
-0.503753134990794
-2.93695207724878
-10.3529719550939
-5.99485199500937
-0.186809362167399
-9.03648473597364
-10.2614305439075
-3.18591645893214
0.322434814999204
-11.8238147987666
-14.2108099021443
-5.61003100618909
-8.02196523833643
-8.16581417279646
-4.81053008879856
-2.07444068791214
-9.01604832661623
-7.45489929175345
-7.49180575842285
-8.45724960680286
-9.37853507087218
-3.89861069835836
-9.97227396326711
-5.81623377794676
1.29301586074126
3.06155115175811
-3.89823874246768
-5.38877536683063
-4.03009070227384
-10.3654313675889
-7.22713351082849
-4.57708627043103
-0.7850299423869
-9.15591296456453
-10.5109197379135
-6.44348425882418
-4.29849342962039
-8.75766435972993
0.412937787078868
-0.187888834572109
-11.249599718785
-10.0416559640436
-9.20033909783883
-3.84084488338639
-8.36243666751518
7.16203344426394
-4.10196519455149
-3.77273971605036
-11.9259467578743
-7.94503404427778
-11.6894010788549
-6.4452852900849
-6.43912163798084
-7.88733046487046
-10.2346315449369
-14.2577348203461
-12.511331065662
-14.3656141021022
-6.89752470855016
-5.42454501537522
-2.44733330576768
-3.20163567220567
-8.92468042363658
-15.7559532513668
-11.3874232405529
-13.9910525336012
-11.7964728028488
-28.6782064397731
-11.0299607185711
-7.08778997225179
-16.9341869003662
-16.1508336210242
-16.3011359075635
1.09044991588697
-14.9236858136258
1.14088697966208
-4.13510997335138
-17.0568215327797
-13.741827016062
-25.6376503251008
-20.5309872173579
-29.6158127856243
2.64902058481508
-13.2012898430408
-0.167766810907954
-8.2634990299321
-19.8999030275301
-38.496310117697
-33.6903291627168
-23.1871265237791
-11.5037823022107
-13.253298191449
2.3190377758157
-16.6756593204311
-22.0502436899074
-19.7499372183377
-15.2859290116149
-15.2430571390238
-8.10436487913659
-16.0730491773375
-13.152107973733
-3.68897402598828
-12.1682147857742
-8.71714179770417
-11.6392649423539
-13.6268362841639
-13.8786269511895
-12.4071111931852
-12.7870501218848
-11.7726770084007
-11.3206946222049
-6.31074224197102
-11.1155909435094
-13.4184886274415
-12.4905389564378
-15.0607185331155
-14.1380700858143
-15.1894855805524
-13.3041556614053
-4.35614983491296
-15.7767507313322
-11.8701634061626
-13.4577295788009
-12.7243103509395
-11.3670568740756
-12.7865318691827
-13.8669659092197
-15.3697906424961
-3.0826130037758
-6.49213828352859
-12.6313572671511
-14.6309244420901
1.37996384952944
-7.00131582008633
-11.1274294656011
-12.6235971533995
-6.54327315997076
5.99444798049651
-8.45097087005376
-15.1289368773155
-12.5238587904268
-8.38560964171611
-8.74152499438143
-13.288900982819
-5.2102348405889
-12.1071845937325
-4.97551552340193
-13.4474486655475
-7.72739824297784
-9.61240305348034
-15.1777348229145
-15.4860332229907
-2.71354536030207
-8.56086591603878
-12.4467455498694
-14.7314324836869
-13.1989362219312
-6.18160925749584
-20.0666349218306
-6.56738919231451
-2.9401554636547
-1.82088354430475
-2.24532460775867
-3.58219636723412
-13.651269900954
9.10889968785687
-15.5638065189095
-24.9554092626633
-12.7396882749495
2.42342515560771
-12.9370713223563
13.779845993755
-2.37136874113381
15.3832021714947
6.31034230089258
3.59365431961706
-13.6198320545238
-2.11899152948973
-14.3509108845581
1.24278902318361
-19.8310185443143
-26.0881655880514
-10.9566861051485
-2.78590846563247
-6.63025620783762
-3.20288403470063
-15.9947123454107
-1.38696459504926
-7.90250840817746
-6.67563785721584
-5.40124418541848
-7.06467546117086
-8.80835624970751
-1.15689437154985
-5.99402225640177
-1.35660622056788
-9.11024024966532
-16.5890738765934
-17.9727097392028
-8.7098592364551
-6.15669962262479
-8.02728583867237
-10.9421504125372
-3.4824835241195
-10.2680080157117
-6.80946085601874
-7.18080707799551
-12.5166571004526
-9.51856644698352
-6.94994545249072
-4.37814762184506
-10.060651668057
-4.66930059398989
-12.3590542372993
-5.0366989630024
-8.30825865829943
-3.07310551391565
-4.70870084904182
-4.70088365927577