/*--------------------------------*- C++ -*----------------------------------*\
| =========                 |                                                 |
| \\      /  F ield         | OpenFOAM: The Open Source CFD Toolbox           |
|  \\    /   O peration     | Version:  2312                                  |
|   \\  /    A nd           | Website:  www.openfoam.com                      |
|    \\/     M anipulation  |                                                 |
\*---------------------------------------------------------------------------*/
FoamFile
{
    version     2.0;
    format      ascii;
    arch        "LSB;label=32;scalar=64";
    class       volScalarField;
    location    "2000";
    object      epsilon;
}
// * * * * * * * * * * * * * * * * * * * * * * * * * * * * * * * * * * * * * //

dimensions      [0 2 -3 0 0 0 0];

internalField   nonuniform List<scalar> 
109989
(
204625.548793781
133257.757667308
95008.1320735839
282037.90292172
73663.2432688264
107376.239107154
246506.156329447
69479.4768714735
70193.7449397453
239157.162830268
74993.4702832835
130600.088669587
110113.086567606
67773.1809913353
69455.59820206
67570.6477901982
129374.917555817
78221.78276038
73843.7113074863
110072.713913165
90862.5392477007
66688.6411964315
66198.5469493604
68876.4512868853
66033.4282983309
263307.336067844
80957.858759264
79654.6906213943
74479.9113673281
200219.092141097
229409.762149566
89187.7773580778
67771.0007808505
65812.4889995843
65829.0620859408
66681.4558407529
71421.8026277116
66189.2034642583
181748.617398879
98248.7833700833
81146.8793013527
72009.1336997092
66972.2988075726
102095.328175135
172339.661291524
213338.588286565
79176.8937816602
68793.2225842282
67253.508707901
66630.1463047436
67505.1024976581
65726.5694595119
67247.3522180674
71259.295545171
69762.9788730919
110469.687694073
102120.185891199
86310.2990066934
74158.003924022
69237.7857369143
66186.8947039545
66337.6863200005
120020.937375902
170794.864454832
177075.340199975
85271.4054595068
70451.4295675771
68232.0772400389
68572.2905083296
67693.9788196418
67160.8838435148
67438.5991765924
66211.693431284
66397.6646659155
68331.4310146299
66337.4896444077
68570.9353599601
266778.808906983
222197.491946493
85449.7099884764
102286.659662645
68665.3349353209
66517.9526773713
75864.3679085745
69739.3411694014
66535.7133953311
66816.4011779468
168451.540425086
148215.934443501
194992.753521875
70263.0917576547
69521.3659466193
69679.7236294462
68466.0215040966
68316.1883207054
67120.6132448717
71073.8570607451
66928.2501152673
68407.1369786142
66589.2077467419
65821.1289538623
68152.2418115486
112689.734781414
212524.686218524
102220.169253432
70010.1324301333
85182.5430547455
77472.1294088371
67426.1176153545
92853.6295909968
88304.4372407878
66956.3336496661
84955.7387466578
66405.8919487829
69300.6124227076
235625.651675169
91362.1204358289
71790.1625855934
69967.8514462047
71201.9274693761
69279.4820074999
69130.6214789237
82740.844947085
69902.3094658875
69521.0481774613
68681.144322096
65450.5501277972
69881.9352977686
67905.7875555838
252932.193844933
104745.574207814
139996.355217763
65537.9273246832
65805.6234331283
104975.50016247
74969.6461622588
67090.8240737446
182504.592612755
142406.282705157
70766.1181096502
115223.633480714
68850.5402595877
71155.223678023
107396.85679626
92348.3715622012
74067.675942808
74861.639933504
72020.1735343546
73630.2234966149
74494.2029777776
105433.059196275
73375.2726422917
72794.9893333767
70825.4693034873
65333.7993548802
69275.0525997417
70386.2836902165
192254.490430419
77919.3990589153
57936.0650494204
201917.50656068
66034.5479950814
65318.845120115
65738.2061938861
91198.0619884031
65918.4105271354
68088.7525744032
213149.444696596
71188.6680827443
89012.2057574694
218459.174918768
71121.335211763
72531.3302518964
75259.0590565733
156658.548911719
167842.641896206
100128.736041841
77783.301183194
77986.8004911799
76613.7546178089
76787.2817597499
232311.191504938
89281.4884285717
75416.1890031126
73394.4344845209
76193.6067366034
78018.1317342966
75270.0398593842
67857.193078486
66815.7832858767
71910.6309536999
72280.238932881
72896.2887813036
93360.5399643492
67401.2374105161
69695.9631469421
245672.543698641
65530.3111193655
71288.884834519
94451.5619359653
67483.7908869626
74945.0784163421
110590.819593268
77028.7735017131
74164.6876917628
89817.3845618262
106269.356871723
74398.2953735831
70856.7937112196
76872.8809332919
78493.1160391598
155349.126537567
144422.686550029
86897.9840175207
82035.0305688543
80848.6845490011
80190.9865763292
78707.1095838701
80761.9615787892
79021.1554501989
107483.848044775
89796.6593264492
78563.4217503569
77055.5037226635
77312.0183418861
76116.0318227839
80183.8769180685
79192.5765986002
68683.2585545495
67567.2084199425
67721.0577630141
71052.2648959796
75876.0224909147
71376.1526094335
77220.829619346
72308.9217885193
93641.5960506049
69044.8270075606
215320.33322595
188987.678230063
65690.8208567294
66350.4022844524
73850.8226928483
68628.5701746798
69421.6790172587
74641.933023974
220997.305920143
78703.5325613152
121718.054513002
227225.762696026
78507.2992938482
76355.6398891168
74157.7403835003
80371.4091420676
80427.1530651161
82889.7504202064
159146.470976227
175719.480105762
103146.150970722
82664.5382376864
86165.1963919196
83494.2052987946
83650.6086410023
84702.9865613346
85737.3277886027
83988.4892429333
155067.914434855
109459.339599366
81627.4585501929
79360.3709438723
81695.3324123225
80789.5428029377
86447.778012525
80749.7920758033
68450.9212567288
69307.5624955982
66226.1167761406
65677.1478287365
79709.2753999723
76127.7584607371
80843.6146409637
79878.7388383298
75759.8242898001
76228.0762155788
69661.4256723198
89381.8246871592
101422.206787881
72177.9932871021
73661.4418105038
69382.665962807
70462.4600107147
88538.0177844574
76179.0359822844
189438.779314304
78056.5099291504
87924.193725234
112727.92936902
102431.099978868
83209.0378465439
81720.2610553132
73380.1275916406
78182.9925859677
85563.3005973872
90364.9251814475
90620.7384937474
84065.064222274
179934.336229037
268064.03696496
88432.955307218
88933.6624452789
92233.0807865894
90169.9658717561
87564.5158209075
87891.9607169692
93058.5633917645
83846.1246625533
87610.941752211
207581.164967689
105858.814424259
84342.6159310424
84118.3998304561
83607.1387033448
90713.3596407194
90397.8579360282
84582.3158697804
68501.8950915686
70379.038476279
66223.0323904646
71981.8642263924
67138.3691053413
65275.02325354
82520.61111517
86394.7317288258
76275.0387465714
83474.5333422722
78038.0072260604
75491.7566183382
75257.666029292
85582.5697959107
208710.254763053
71710.8058640108
102546.687826525
71431.7391391345
69252.5631662861
81773.1762125851
133491.498037461
80907.0239339368
263586.617837486
82761.9982657547
131900.551491156
137531.777233119
278121.621495203
85401.9733976994
85226.1496655976
84731.8832429168
81758.2965100434
76933.6440138916
81002.1573826968
89358.5502395696
92615.3630768737
94570.991935223
89390.495604867
95142.220304106
89890.7363758458
91196.5590622793
94475.3719509886
90546.1574950593
96549.961823215
94303.0246404112
94817.9946065433
96674.1840631312
97067.4471624461
88872.4702288313
92753.0535800363
318517.640603541
135426.837971527
138576.411148781
88588.0643538667
86623.5803859094
86172.6091881135
87963.3163565501
120000.075744063
111731.537562665
87490.1670505363
68204.1172529937
67548.2296510557
73563.0111961506
72265.818215483
65521.9249847282
71086.0056035385
68168.8645861715
64807.966133084
68782.8976333984
80875.2835248983
89602.3845129281
91162.2524336453
90806.576946876
77982.710173096
79044.4456016359
83641.029813234
89925.8202616598
76528.9896416606
96708.6306349198
210708.694771061
84798.018469875
110971.909125538
95733.9330418149
66409.0911941594
72262.7986617412
107618.943850952
251134.915826663
104589.27160538
80018.3092494688
83597.9762178472
84485.1513288225
290362.472207359
107364.767291426
130235.243168972
88013.9289026739
88694.2592708106
86588.070228556
86655.2362712525
84420.4768725793
80384.2954812533
76129.3141542261
80146.4968538864
91177.7727882718
95220.2690808951
97755.1512995453
93038.8730684263
97451.9945269719
94589.3841341475
99713.5414319034
161250.681114733
95193.0416869208
96814.600878053
98882.8832989554
95597.4161813132
100152.319619097
104718.38932973
107477.0936274
95104.398500795
141603.519874041
304165.32234456
93950.3969341662
90293.2302405294
89297.4564115914
86901.8753871177
92528.911543541
166152.084098065
117874.87776645
107448.621936141
95529.5666114818
70564.3011389407
67373.0058901875
74769.0187579622
74469.1960531922
71821.02670408
67960.7299423723
65636.2970936773
74496.3683317159
70942.8337582066
77575.7657978986
64697.385047046
65478.4783825088
85241.7904624902
91106.5694239681
93255.5671973945
93652.0801461105
94172.9336236821
82139.8917750791
84893.5660420919
85042.7949227346
87471.8256193137
92182.8759747058
82394.2041995447
203166.856852953
210730.571213675
151896.286409612
100577.928797448
220510.644210748
83494.46028783
85506.3135839263
65535.5303553022
76171.4853794776
150330.025673541
107000.88692211
120562.530288391
84475.6027189581
84805.9871663764
85342.4534913096
146879.646319054
130234.652921625
225929.707269235
92817.6147534845
93707.8574578754
92004.4720390608
85336.5932583299
92180.8464961185
89842.6749954186
79871.5708514571
77991.2513834405
96439.6138188244
105155.807972234
106627.082571828
99515.2364280065
108958.1425027
99689.2090061325
105008.108782934
102744.372588357
101448.477448564
100151.018062648
101551.300146478
100436.002721239
103890.847827862
109769.824191492
107454.719952587
114475.197072204
98396.2773984166
97993.1279571323
245651.393141108
97792.0072632045
96685.2761008517
94268.1946342747
92556.578635621
91418.8741256042
91929.2472052248
125829.803298798
387253.918427447
109557.71214041
98436.6865384721
70980.5816873406
65654.5451200885
69921.9536499946
76355.0099758528
75105.750356831
69515.7735590865
71259.6858085382
65573.3964842956
65423.8963076225
76522.592860918
66987.2638179756
75334.7760634847
81599.4145391132
63777.9243494728
62980.7147259004
86443.3598011966
96360.0497462837
94867.6050198712
100709.584173529
96497.5201721972
102815.04786795
98917.3666656458
83713.468959678
88021.9387871049
85057.4256517
91204.9359737164
90913.407321053
95043.6714003312
89054.6026758126
109638.447416366
119506.325973353
159719.396932813
84371.2174311637
101840.177646651
118036.989731632
68024.6368538405
91898.2880292872
62680.2135942116
85806.6583437149
76013.9446055538
200958.152502294
115089.651843267
93885.1827588111
98825.8808154141
96743.2856396128
90190.0400149771
280111.111176498
270070.128518894
199303.939193573
121430.358253189
112427.796132481
97563.7188552943
97692.7560779733
96156.7281224579
90107.847329709
95607.3759540565
95357.8708878401
84879.5117240197
84905.1108425542
103737.185953042
112854.065343083
104855.97811227
111054.577548243
111060.864346009
100973.148923095
106972.238872752
111326.758830802
105850.522669165
108989.174946614
107265.619972988
105845.745270884
107018.433233504
102766.521749863
108799.094279938
119256.902369732
114298.035891927
112557.39247727
117546.29384254
117820.420023936
121307.92043484
351361.110748686
103391.146374323
100112.522278292
101374.640471485
98912.3061145903
95171.3084108334
94891.0818482531
95103.5840454648
94079.6729866326
150691.294032277
123444.457029512
101654.926156566
71478.1334258221
66878.5396763883
65219.0744716107
68950.4018416714
74691.7521168176
76150.8169306992
80047.7566332802
67741.8548822562
76883.5312887199
65914.3678514865
66355.1538316894
75110.8613680976
79349.0089148081
95340.3434710842
63482.2940836628
62473.6949853538
62125.665460708
91838.5064115311
86432.7383520398
103757.563143162
96403.1023504964
100391.203228942
116814.337532969
103958.55566065
112121.400196639
99081.6884277979
88396.5648391601
85467.8275854069
91438.9193004652
90216.4041225861
94887.532013226
220580.351945864
123355.213006624
79298.836017871
84334.7136721822
67791.0137283131
99210.7639061538
84130.8820868046
205006.661393298
62946.7553297998
99212.5541640479
64161.9179881615
85377.0166506548
79003.9048957942
220281.913968263
273731.663906357
101238.398497402
120245.557657133
144287.746745577
95775.890705657
92021.9638652286
157585.888869994
150639.547334865
318610.942592629
162557.384767354
101195.650196876
96941.4437661982
102006.928882783
96135.1942401575
98733.4665886346
92849.7017945755
90101.5587647707
95908.8925524626
100001.335650452
99332.0429394162
85728.0819823128
86039.5084424323
89033.689282293
84413.7523032395
109883.180240288
119047.323328462
115214.31406989
114322.263326535
114571.504482858
117971.348340284
107336.38276672
111090.164561059
113567.64748889
114546.428708977
120171.705844992
119340.909207349
112853.668582105
113424.442552151
114005.836387706
111121.404309712
132152.3638987
127392.383323736
124253.900628598
122622.021274394
133432.104749623
120051.335344276
126115.873875604
136209.649565428
181200.162440786
170329.456983824
109060.539183914
105347.86434578
105209.849898574
102329.613633452
98442.7870145141
98460.0233205753
98905.3560239327
106385.185417752
126656.925718829
150505.621242087
111638.142791242
74270.1513417556
66227.5512012685
63991.8322847368
66427.9435608971
69550.8684797323
74303.4579821423
77330.2412512192
80434.4698979652
81978.2012579495
69456.2585688077
68261.8539815319
76205.5311234681
63367.3397310084
65538.5862487316
64549.8219481285
69095.7152345361
78822.2637305331
81334.6076333527
90705.2827562738
86208.4009087821
64622.8471890663
61231.0797795646
96390.8582620351
93487.2623455587
103207.39774737
106808.246990016
115606.913356141
100523.47859426
107170.315549632
123229.383456497
119984.796228768
113018.496118297
118527.48622359
115869.633097331
102897.647828099
91613.340461547
88280.77523356
82448.6501541304
98380.0494047253
94703.5940731942
88405.3243755323
97932.0990197387
95821.2150169453
140785.864065028
119756.895898365
195408.150696797
175153.709571001
69844.4616653986
70522.715548463
185366.040250315
160830.892690955
62967.2247308001
63619.4718291808
74117.7858893104
64648.4643938969
94863.5779542156
82717.3898806506
120062.228412995
93280.1243105322
149986.719196958
242171.611842813
103939.164029375
96808.1547490799
272936.230172866
128402.597429867
371562.947386301
385445.667162333
104862.612409309
101646.170434752
106547.844872519
99293.2225647921
99989.5067936567
106808.632899525
96630.1831695172
99352.7610756828
97846.3465497581
108133.303245282
92836.6221402303
93111.7539292205
83083.1231574809
92606.885595221
111819.669641025
119716.050626344
121742.044332267
121050.137099878
116350.786805735
114614.377168252
114667.490607663
122745.838473101
125945.49292858
115703.472414506
113532.791487194
118068.152815016
116644.208145866
126666.002437786
131079.651703044
124608.660030376
127027.22391147
119123.760416154
139189.170202159
136240.8609935
130778.755546628
129328.706908209
141825.889896919
129484.743218225
141096.505590593
135954.786509765
127881.234027233
147762.470476738
151969.591471494
300327.312943122
147922.370113582
399263.345696491
109946.807277566
110210.536002115
105980.272394479
105261.525441006
101843.044132527
101019.983658683
103175.838599263
109892.105024602
129637.130903193
76599.3939699157
73476.2456120321
65041.1953206436
62006.9273399488
66011.4291018367
71946.7455701227
67873.4210203893
76086.6879432477
77678.9862552797
88664.2475919441
78603.4152801157
67597.3477250068
69471.6827791784
69027.8618240796
78876.6556238925
62681.4637139559
65374.676015148
67337.3970881508
70256.9267856986
84902.0450939531
75523.6987715328
91614.3473201683
158796.892900476
94728.4857616647
66084.7883504105
62258.5522879757
60766.95551729
98186.9257955815
104941.062076124
95113.0111259676
111776.752077732
108850.612554298
118216.282276678
117148.55746307
123013.981558866
103592.574286119
109814.038134687
114504.424313298
138452.064642674
134469.669330168
109416.875316595
106880.417477899
91413.8514105347
91999.7220066676
89935.6690690359
85250.5929537322
103293.398038483
97922.5731336649
102303.898101766
93413.8970660992
108565.403429657
100257.839412447
159903.281690819
121138.877466882
84140.6232384461
136187.856559654
81704.1256140092
96135.5732156729
62176.5250894548
62996.4763763689
125166.14129515
80269.985689897
107985.195643874
150167.044460059
126645.460594375
98437.5076348227
133558.885634929
102605.924506703
98212.2882740492
138938.067093571
148326.608745338
221887.501211994
169659.163215672
105554.547352812
109316.530893672
106431.074354422
104919.613085774
108865.425970792
110845.687791383
110968.927383433
104029.255788022
103517.591506938
103864.396610852
109878.052570373
98277.4179155864
99031.0337836079
88998.9471393422
115763.462801035
95929.8606351044
115131.775335518
119730.465703302
124532.289268183
131131.416414081
120042.442374717
129158.965962718
124865.478333827
125090.822665105
121410.795132782
133094.398443934
133190.709511734
122849.174267135
122090.515933573
114694.174773912
119875.880680014
147243.672262823
143202.748763778
137761.802140168
129076.588296034
140019.941555337
156390.953714387
147249.742389354
137971.645798119
132874.750218058
134761.145589015
140988.881828671
144012.256914952
138144.640566235
154013.933478533
164989.726415082
166699.34475244
189395.480601568
307350.864019686
116989.846322531
113593.379325056
109496.962128159
106773.588417583
105995.106435515
104637.510192114
107417.64591488
112282.639822955
75690.8162244409
86454.5313553245
69552.6947734386
63562.6813830038
66946.7526713194
76925.0449355533
69939.2233412174
72797.0786138381
76218.8915803949
82120.010036868
90821.6290070385
73643.0216149711
83579.720102585
65323.4931925339
66264.424401394
83973.9732883388
60336.9306195471
62791.9104880146
67533.0820878053
69788.7409587211
93370.2574761031
83283.8004503535
73274.1256137388
95800.8100487002
89863.561641544
170589.944324522
235211.28534239
59933.1537820201
59907.6897912871
96609.7317937744
111878.17273407
113667.393748653
119740.693846653
117961.398922384
128764.593840744
131172.918374161
140135.103989171
111719.149479018
106425.489329276
116049.814109869
120175.717448039
145765.967861892
155492.692114067
156230.775120228
112878.875901789
95799.9789248987
91608.1860199083
95062.797764731
88272.3666569864
107965.39494461
101954.919093091
107649.196703869
93823.2236323238
91426.1938480562
97772.1585453237
116768.271540201
113877.792252164
102951.189064492
279758.767476931
199914.32508732
147646.116951628
133758.486486941
76246.7995566173
162138.992284851
74533.3666186505
60434.6016220447
61620.246606447
251091.935854204
88136.5012648226
129507.512457424
144412.528850628
155054.787346023
135913.34614163
177218.760423915
105517.038532674
248901.003082969
103194.606196173
113735.734508905
385291.211989534
174254.668680969
243609.772248622
140316.791985134
110838.26996716
112788.326929
116411.349256106
109745.368296464
109638.00257527
109059.214239542
106548.275848714
110948.815386924
112588.965780359
113523.791692619
105624.831292362
110295.421144829
104552.602738152
105772.174522605
114437.002352924
99599.0682593014
100795.918378785
103863.823044807
94963.7032011836
92095.3860822458
116488.815210661
149171.330790317
135220.404077277
100449.989727528
123975.315579367
126945.422340728
132257.367021277
126542.258220387
139829.924944014
137741.928793005
135056.811684838
133705.133120225
131247.453704479
126538.518834738
141011.362586775
135800.171205416
129594.029513394
145552.683276994
120146.577673053
129404.414257882
126487.648988455
177446.24467271
166255.13847541
145954.037391833
157856.629728345
170549.003449523
165101.365659897
160023.847713253
150050.267699902
138746.205091312
149108.920501983
157406.552699171
179816.334809034
188726.586126511
197123.018414441
147765.73724893
390098.451433385
298906.040975446
119858.332795126
114709.968677232
112569.592574218
112939.459888659
111882.17588359
115190.118514102
109751.358621569
110683.387742594
74639.8881987423
82784.9289294373
102318.685564769
95485.9286813075
78917.4189393819
61184.0242499494
64209.0398946196
69173.8147725825
72544.9839080998
73811.4412153135
79748.9382345067
89008.9886991837
91115.5869385258
75946.6983908322
80375.6502304239
66720.6327084408
61257.250702513
69781.8816862259
81882.5993066169
60432.9250553336
64414.2580067094
70216.6599031542
99730.3597303179
83693.8041351491
79153.9108697092
75408.2058250143
74892.8881818843
102548.841923213
94945.7238020121
93700.5605221304
62962.2927555137
59605.0696573935
100958.313599022
117013.497739568
116450.787154925
122037.274121817
123675.72323915
129217.87315299
123743.412435785
127612.869427883
138925.161187144
144659.713825824
149710.033437465
115206.937689192
113438.57209065
116670.667385509
121837.767310001
174348.941410473
160866.771357006
175524.335997341
183182.531002516
115835.485156978
96168.4814811162
104885.446523869
95923.2277330259
94058.5752532608
86306.9783821226
105112.247227375
115367.46804345
106009.998054803
90890.0378273073
107092.373337006
119035.290288148
115249.359378489
161030.428490338
155681.065313534
91521.9333746255
193800.924737316
89820.9991139048
83008.360278181
93165.6685905952
60510.2423245123
62344.7075901161
104533.391685503
217284.847758181
223716.694515134
164481.711946462
373457.099449895
132514.658770604
160517.08362722
118731.195035607
287997.112907009
107938.135870539
134764.126354423
402199.608263522
174495.2681643
160123.322589568
115727.983429009
120032.974267819
114869.884642585
114495.231899317
113277.168535675
109892.053646302
117480.312141453
110971.706272521
114734.229148973
108391.244294864
110606.696080197
123490.176941039
104490.353174745
101208.781571887
106539.830179528
118421.141320183
99107.691784505
113296.184709658
130640.35412609
170492.699137849
204590.640167942
118521.921154872
127171.82997489
125562.496809498
128432.777525461
135074.789499545
140712.663759897
137166.92217144
143483.93045359
146075.753506675
138106.398272107
148818.42469712
128401.305416567
149870.54317298
132913.332400014
135783.37305362
154132.087223817
154691.263115712
131582.531637414
184548.642308078
185397.550772716
202389.507102733
167307.367012954
158573.170818958
173387.044361336
178311.305221459
179787.392474666
160274.192644416
170550.557493943
153592.287529352
151373.387088429
161924.98079803
172777.344612314
188746.185982727
195478.906196569
196066.731844493
249145.138479079
247961.172856827
196362.568956609
181238.224689589
125822.176174193
122146.717877468
120579.210793382
113928.881155006
115857.538305175
114267.71383264
117233.819723093
113753.166490411
118128.760096341
79601.4551259369
96226.2930082855
176072.095616509
164882.660683252
164434.38028465
98815.8175276269
61328.0792611884
63436.7339605677
65426.0540688271
69209.6557821467
76729.9862047385
84789.5474131732
77266.519440052
82195.1127527142
82059.5991632027
89154.5119639556
76983.8759071648
81512.6756859448
62399.4138869611
70066.3919965963
60917.1430341692
69943.6194893551
86751.9156109039
64658.1327406492
72919.9068614003
67541.7450686462
107899.556447505
101497.86712158
85663.3277923724
88530.764553382
78010.8575923907
77315.2709621469
104972.381697677
103180.527253694
100763.378444429
99839.7506486637
63779.4963961246
61954.7566171346
59683.6554272002
122776.866917656
123085.474759095
121836.071634314
141324.258313145
137297.152661123
128058.69875449
135016.983104296
131061.080961714
125909.959189429
156505.042245774
166669.512084038
172763.208309726
117096.182927248
124032.26603792
120313.840671214
129610.107793129
158388.316035959
184136.096037279
185576.938523702
235446.37142613
192301.449263609
102693.36961174
95970.73375591
108737.047685405
96738.1269418456
99801.8640700136
93869.2708917602
98047.7157101115
86941.2331832545
112883.344691772
120437.035439596
107372.425376267
85543.0009182575
101229.053943301
109118.455882596
116795.577396628
125724.343237374
120674.049337983
138925.480139291
177192.31117605
86601.8532521924
211349.561291997
68969.9209866741
161827.69993082
101590.974454343
60711.1405506305
64233.2246386861
128012.015700322
305324.540789168
295751.703559259
167586.448466157
369776.2946187
131359.798464981
162328.714326216
365391.673499631
147320.252476553
289239.477950108
136236.856920042
119586.52266291
122489.119215187
124970.335766021
123271.055158395
125277.895959652
117427.507453896
114287.434952641
124197.275208547
122421.201277732
115569.921776179
114306.729417336
128945.585202228
113959.280646077
127432.009656904
124841.579026774
111010.281897134
107128.849067615
115995.909013873
111090.940760479
151690.751203522
136564.517999744
118228.416538015
136539.226182473
249241.71621361
211115.559033144
332069.469940559
181591.464139548
131291.625443499
140681.431996244
134122.656427829
130593.972311579
137998.118424194
138045.615240113
144773.335304068
140275.624995833
153352.474623498
154585.96883957
150563.053846983
155194.778756942
135714.549625758
152292.594765296
139681.898554562
155134.551038098
142248.861101063
165513.191083525
168819.942100657
137215.509816729
190624.296711
260096.311978951
230541.413209046
241747.915135445
261682.815657127
194037.443555058
170109.782940112
186343.499955253
176419.635349131
189034.800290849
171518.385025508
174434.006457866
165895.7376291
177771.125068283
217874.690304406
197320.532067261
256790.532183839
271350.593957909
276690.089758251
223253.730926223
376673.674048374
126808.35467168
126697.728953261
119235.420994873
115729.05331389
118887.841384742
122543.493316421
119845.898746937
131412.481964607
82616.7323108012
121400.917253482
242460.589204138
165943.005687963
61700.0951129611
66885.6824203255
64403.9967290003
69977.1702948313
90100.288521361
73550.0849368889
98285.0847079601
97792.5911390559
75038.282197246
80512.0558820577
83583.0034941804
83516.5534536279
73906.7595023663
86575.7021396259
61162.3302249464
71302.6842135659
60158.8497267548
70719.03869273
82862.3803710812
89141.3449955429
62419.9742345668
73214.1434213608
70398.8957068863
68159.7707631749
110352.158015777
115428.388282667
105359.716092187
97186.3967286747
80806.5292985614
88996.0484183784
84833.4867375298
73794.6303746874
75213.1873321099
118618.195754772
105528.629085747
101861.497203766
105249.473718555
97816.7375162575
68785.970181909
63453.2703374881
75972.0997100292
60620.4446682146
59052.6832634471
141256.780083436
138989.957834957
139866.227114918
162942.577113908
139009.652783636
152879.094389986
133662.972400682
141565.88124671
135904.952996811
168151.607950088
179238.047242503
192096.262416327
124101.689261092
123292.18606624
131288.005759463
125180.623341834
125056.731533593
131123.308331867
128087.987314699
198881.696181797
209293.112196665
192095.941072653
203007.406923265
272614.338409606
100181.980722696
96154.8424277097
114743.434536732
103852.624201695
107208.032012812
89464.9094315317
98646.091994838
108453.304527466
93677.4138138687
118484.158806607
124547.123638244
110215.730371867
93768.7937992628
99721.0909804448
104483.27559864
111293.064490528
115659.260534232
148207.136247938
135844.6824611
203531.636415053
181297.332032362
76281.9035127163
52426.3712365803
238542.803476566
61112.0701507784
59900.4118187303
62158.5548636815
281389.080369909
263160.575575455
322695.106899316
159429.269801687
308485.514998215
175893.961703867
252594.773783827
183329.000472464
395177.162903157
142993.971572857
125468.581048714
128354.401755519
124399.274516363
128208.294292488
126876.301462099
138979.855992302
117840.346358999
122724.907219291
126764.602827325
115989.261345477
121293.587840988
115237.818068047
119620.72307656
139927.66137056
165487.564277199
114883.155166143
121182.933897251
128685.569347808
131591.041143371
124626.444549174
114760.210706501
112237.30667884
136546.756254301
113685.286471173
355386.840957698
222873.692037853
136930.277497609
254092.860768689
146604.649870197
221378.31131512
118017.498179923
255237.759566948
149480.307543019
168668.725147969
132977.40721916
144714.033703753
133709.189636807
136247.114368367
143927.442646234
141566.422406104
146393.57370047
148134.161434813
153729.170333632
146167.9793609
163357.689287457
165840.907093267
158355.017887929
142304.817877753
133005.725400864
156267.478236692
161821.698495589
162018.598769885
155005.417510995
141842.388029096
185429.643486125
181418.960814582
169472.74788108
147065.833082873
273069.787745162
427605.933105655
220412.507603338
275982.681584186
337620.31195492
226487.73545463
370369.813552778
195734.015772133
189350.336398097
197836.217901885
209028.587285887
179050.260237616
186105.2613746
192793.526165332
177962.46841008
201762.283583302
267923.628057998
256578.891811034
217750.076484964
366735.726677932
283020.632135443
358467.90286088
356162.623741658
280700.8859299
233823.316388933
199656.897357796
130515.090939871
123277.668059924
120993.540707721
125767.751145916
133480.545921551
168132.344918875
81884.1743733688
99850.1446542835
121278.555283403
216700.307000478
60209.2906304952
66712.2155595366
65536.6139757964
124624.378952149
125921.948954718
77216.625316155
75946.0687375426
203989.663742508
206663.834568608
77825.6182324381
82039.1036037593
87861.6508088629
74628.2985026183
82428.0265976073
91723.5014544965
62736.6655732704
60883.525708977
69223.8223597004
71806.5221195689
59095.6224976274
67331.228617443
82264.3049846304
90066.8255591339
85991.6193829087
96361.3189947686
64392.5233428812
70217.3637868984
72222.5300094713
67559.4821440563
70295.1170558062
114342.868824549
129414.645424152
125161.477384427
102218.871882174
102251.538016969
77012.8994577862
96032.5920631317
85744.4518262695
84321.5969812078
71557.605705292
78951.0706061864
72336.7386605044
130818.308560118
116642.189248684
105813.620420274
107512.717782986
108556.901505628
101485.409275457
86712.5250557618
73542.0537980924
60947.0555807681
61616.9606613427
76611.9150928012
60649.816898287
66896.3831343045
58979.2146848805
173721.77915007
159272.710200036
157564.267590571
168214.8424848
173416.552215918
157026.026451449
140990.83014264
157700.990733693