/*--------------------------------*- C++ -*----------------------------------*\
| =========                 |                                                 |
| \\      /  F ield         | OpenFOAM: The Open Source CFD Toolbox           |
|  \\    /   O peration     | Version:  2312                                  |
|   \\  /    A nd           | Website:  www.openfoam.com                      |
|    \\/     M anipulation  |                                                 |
\*---------------------------------------------------------------------------*/
FoamFile
{
    version     2.0;
    format      ascii;
    arch        "LSB;label=32;scalar=64";
    class       volScalarField;
    location    "2000";
    object      k;
}
// * * * * * * * * * * * * * * * * * * * * * * * * * * * * * * * * * * * * * //

dimensions      [0 2 -2 0 0 0 0];

internalField   nonuniform List<scalar> 
109989
(
85.5368420259131
120.796497422778
166.287052841514
84.6456220955248
214.791319467318
154.96587990891
76.8119516901117
239.94790190302
214.207525312354
102.356647161825
190.316668652991
50.2257565219773
132.152220083718
251.801686589603
212.690521945855
238.487605174424
143.670373571883
176.303883616871
197.242393616278
95.6542765628436
146.712681123898
267.898394350007
233.148723478578
233.65517996115
260.632294222944
96.3875160611534
192.406524747536
166.466559044593
190.958450411937
80.2129061988351
85.9425790104283
128.290411767206
288.612345553325
257.977012830666
227.420292676041
258.450630942276
236.506072033215
272.99907761294
75.3543731025886
155.495025648788
180.780407639432
172.836601252143
242.48985966372
88.7818238154345
70.998921760174
82.0271852518374
139.928450942666
302.980521924504
289.087695389547
280.234182238711
202.665402331369
242.300068712393
278.448734779317
249.396312471079
251.142968794393
54.0634183514566
143.683740094577
162.175883062126
201.70742462123
182.138581583809
247.199086323592
248.207628235581
44.1244397179727
70.2289312816715
72.3036842736676
124.981909760883
320.15702147776
297.555672601463
304.192334288499
295.225728350197
285.567219834347
200.951139292058
265.965177771543
225.738525555852
269.013522313081
267.881974856949
251.313735718547
96.8618513737131
96.7288852666116
172.541379648755
134.349899381954
232.07337862094
236.603174615223
140.631729237025
210.165939890558
239.859641990601
270.11948258054
55.5218410484772
63.9875264760661
76.8463804575059
318.856431076844
313.261852679917
313.487811159962
301.191415692979
297.973805263167
281.916951889214
186.386762666019
270.628095975291
210.599315479375
254.478690433447
251.184142480801
299.440709428087
157.002678177287
93.5130294377658
121.599373393078
227.04906525255
160.400165291119
169.958106750884
223.532860744499
119.957723128487
122.124659445067
243.96759868127
150.559894047221
252.065551435435
300.566990088576
70.0042688906336
140.299332007128
328.348104967475
317.60420843706
324.933189408743
306.400494869311
300.348209290842
141.66609064307
281.11751650728
222.164749847227
257.236899884691
259.763334211683
309.927574374467
298.217963933942
119.539105976792
119.775863043173
60.7995087250016
248.810921261593
235.444238972182
140.403583323923
169.297635008343
221.392065270023
87.3287784477013
74.0349321286917
240.992995289923
128.158100134493
260.322433095757
315.32582231092
105.002764332022
132.773036410924
342.855131340977
343.618138706154
328.000710293097
334.007971467184
332.909040591758
134.386020395458
302.629597941787
215.267420289414
255.865651408634
249.380822158119
312.819759712722
313.351958535163
74.5148377410508
157.835002385404
33.4646040162655
77.7919248092228
261.659708874657
234.781839634388
238.562734328638
158.043624673851
233.145663093359
237.908590861945
97.4645018670092
251.873217633445
167.946133621156
102.811145762693
291.256474029446
320.836142079087
339.144231705919
69.8308093054633
78.9976560752435
122.138111286408
358.279772728568
358.146149858585
346.672735734229
340.291254143127
91.2764211565474
158.746226682092
313.887291722337
278.401059524149
330.092100659274
195.113473126652
230.709266509336
286.313354713649
286.079409236055
330.543520797794
322.901601656898
331.400324615283
120.282682916482
213.048833962274
37.8520510605
88.6126324881075
236.478742758359
207.511905071479
154.410159799119
247.113428548379
207.141836140775
146.657156392088
218.32328691157
276.621284019526
165.3656168662
137.324532825244
296.496382541318
294.823844246696
345.06226844185
356.843701311718
75.0271027694541
71.354408354152
156.225948734895
373.889779072073
371.78919063919
368.967143771016
354.178747215656
366.812458416445
348.694086110755
123.239720614061
170.902640395652
315.877974476749
331.028970032612
277.493600115327
293.137569918911
205.148418448965
252.211074890438
289.190288744202
284.095249076219
297.844819592208
325.081005048477
343.021912607686
309.654854359199
351.825668834737
328.037997951672
121.251463290836
202.085773442732
80.7304589940087
74.1272452197104
249.296956515086
225.916739956094
183.720567761715
270.510785967562
235.963600442869
216.5048787315
117.160431764972
249.108991226829
139.517533426733
76.2224943009208
322.695115973399
302.909686168935
302.101645077218
352.070063610983
362.491136666686
373.70633256926
76.2453632814283
81.3248569101995
136.837271687283
377.341190760216
387.317293796641
381.688891322781
379.501663282977
380.05763339732
385.265482957584
372.411916274439
56.423553215754
160.652826536242
341.531911570578
298.152886526362
353.336820397895
291.082133774737
219.693386954871
275.598109297972
286.294991534014
303.161934565126
265.300082515639
265.0824139165
356.826459197038
334.077387397124
368.620865583049
363.849129220027
347.640297304576
162.116970757478
206.001598326112
148.423045336768
130.26287009045
183.253665355082
189.695194421219
252.523737494331
219.096172728144
165.365115343888
247.044401551674
105.883692643359
259.70433897153
243.421840746233
190.465234075367
44.9298801691525
345.357267152007
336.821737465629
265.381600626694
334.354680673978
376.611877815648
401.944346110098
401.600579444892
379.860769563465
82.6231509390054
85.5112860536659
393.979423409543
396.095981002405
404.018322936903
398.264864413308
390.591109067893
392.629605113145
408.092936605402
366.992159557313
388.58661436003
68.6547091667565
177.400107795716
349.844888311716
330.322257932168
317.086126316632
263.480251600227
232.759583306233
269.110879097021
277.06027415984
299.397607829222
272.886121799059
325.96091765533
241.081296302275
256.942368946512
373.019602294842
382.567290823064
335.396733899894
377.586475139719
360.383337370598
346.580235874363
169.914590246904
157.582829232639
115.010593171931
185.087750647547
156.922913265821
190.355560904435
246.644502710736
165.573609281766
137.935643899595
239.496727788072
132.731678330391
256.512737729917
158.093029213883
177.564360356947
87.6475530738935
365.125796759665
355.29220963277
337.89572413743
351.321218236799
274.635892183398
339.882816392663
395.775529530243
410.400153653262
418.259344822541
396.25888117373
417.780148222698
140.025926016497
402.220113923082
409.487072988041
400.923349340044
413.890548201423
417.192516806416
417.068431367474
420.610331810842
416.075936148428
390.293908993512
411.881769847862
92.2348000081984
168.388977262772
168.846779364315
377.921123050847
317.198060196448
341.983599282184
295.320560430291
200.177394473016
193.870661984633
288.340319593479
260.600713512046
254.470120239675
320.877424912309
322.731656459974
263.407139391209
322.810766299949
229.365815677039
264.697791396892
219.351285708763
367.054931479939
399.954034945445
404.327560120968
403.291103286938
334.214242401229
355.274045170701
380.832985326724
397.770440632362
353.485371087767
151.682763273151
91.2799554132694
159.278713698034
143.233808523893
153.1332717448
228.510446954239
257.598022778497
124.924682202564
104.062497347279
164.973230676639
255.726091359054
244.997286053316
297.208849203904
110.527585079193
177.697135302878
140.671560290986
366.613227332244
381.704602552286
349.989787714503
355.267820383548
359.947392926303
318.239981234532
274.863548616078
336.90258142871
399.627874935679
422.671803176066
429.188337308879
412.139143377511
431.239015263262
409.815561964686
432.252639679854
72.7243174276477
412.103504054104
418.265427219311
433.916608680773
422.969537760801
433.391471671356
441.251734360542
440.53009900541
420.556796089325
146.416743599447
149.433987025243
406.254273128789
332.868138496783
343.394134615769
308.145036462783
301.056576818264
189.31942220304
179.150349804759
214.563945883156
263.194730527439
266.74623478948
241.956432523005
317.832085102081
332.764086067065
321.653105030338
238.387858247891
279.316145766981
345.69852315747
321.62515887667
180.647013904495
277.079044401044
238.232140984547
385.358667888342
406.771430778998
409.15669834643
414.749537472893
417.761267400266
352.612398062189
383.708372821466
387.189614453926
392.124580661647
402.80396155812
374.670284803674
84.82516243654
90.6905196581357
73.3603907816337
121.390368509687
113.793467646661
174.87204464639
151.101241182925
236.55756909438
235.662619892532
69.4926988617194
141.97943844458
133.461785247593
264.606653019261
234.351034876655
289.188405838275
69.6164393482425
155.604346826539
85.9695140582475
385.285368041275
403.667280210074
386.776426898177
328.083857599773
389.35452474908
392.548913231991
317.216143656948
256.340281054004
422.345134979363
465.338871454372
462.399720543619
440.184442315792
475.908357997828
423.940475597319
448.333111402825
436.877515043181
426.585351215831
429.85173718262
441.423297484734
440.85648781967
442.995551837024
457.29843095448
442.054882056595
450.395775886036
435.305394145043
433.277830269282
79.2335359649173
430.000044767739
411.395207973947
350.675357153621
321.556787000055
329.84478913604
313.638708886901
219.722477336994
132.668243228903
229.132530555985
271.772706707995
245.421955423742
264.826442566682
233.425690172414
325.967059468522
336.336799247409
308.633488048142
321.146754156927
256.954393662428
274.662233228512
355.129201149681
294.809822478599
348.242095748982
169.394255190144
268.767004338565
247.617216148844
388.862915730284
419.351366869128
423.113071909556
428.328424941369
428.289284706497
437.576554315729
438.242337917397
357.524168620308
387.034360471949
385.73618256866
409.044836535997
400.395915990463
408.880711887146
395.729655705512
119.523333252169
62.3477841413966
75.9664968549087
132.019203215048
146.206211517047
124.129610761392
218.315977598071
109.985621003983
246.721262091571
188.145630188608
224.559128786083
84.4417951215895
144.637921956392
253.363241260828
236.557894920092
180.30271754506
287.184195564071
106.901584847412
104.536590133162
78.6936210800161
185.151296454644
53.8215481870294
408.527686367799
417.132585349964
400.402458406767
334.169840297056
400.94190392034
417.067667516703
324.497679768788
298.809197171076
456.58857430615
497.756179064016
464.194277272153
481.293324729249
481.823214822605
447.108921703857
472.360727670527
478.855062595916
427.495955052497
454.27071004671
435.193848591555
443.429335827105
459.221320037084
453.033427078875
468.772682762299
471.976986397033
483.867315022923
450.315258902936
446.490825015189
456.645169835054
467.230220353087
101.218389696834
455.54172754179
416.179298446641
438.910593965349
394.381317554626
328.985089900649
351.23346756366
309.010285409495
337.294954917732
196.629898952103
215.262655325596
273.918163269823
256.354111103988
290.692591185523
264.365145285807
244.141758623308
305.219075505338
332.448268023159
363.612481388745
295.940063409955
351.584552373616
221.749531402727
299.829981941172
349.733204844283
364.06740734823
136.753680919988
276.362600425131
210.891290856927
247.991512769148
404.167380478011
390.178596934372
439.448508038179
416.250057430843
443.722357525733
460.251794442001
457.467286129012
465.882621535999
437.685707366721
384.405042284999
347.920180372109
403.983589661037
407.466055703341
425.968744066096
81.3401079160619
104.236805119542
47.4169513341553
137.219549002923
172.049058431833
130.503794044541
153.946068404148
78.3609127460914
228.999113714091
118.104925034095
288.634579841772
185.651099202905
227.751706969694
89.6385765445962
97.2204359463467
252.073629186055
197.492045271425
142.596731147981
299.570479818042
298.511216715746
154.744063345724
189.050364454297
107.656928372206
159.416613862954
434.025124939355
378.521807294258
442.575227967067
370.901184905353
411.96337123165
350.768092151674
329.593430248297
385.281577297524
431.78070299388
436.440734845743
316.058517055264
338.239977001984
302.418329431594
281.38602549044
486.362245985395
524.467096385512
508.195532508992
506.762170418922
497.298864352606
499.306231372546
474.207023213673
491.917611095218
486.745401739042
435.931652510664
446.947685720683
469.170829663577
445.112865617437
461.738342050725
479.12441226115
486.953937833713
517.939249143736
518.034277835266
451.812889228111
448.673718065893
492.071216753935
452.545828942173
461.073664853472
499.431998281678
139.768171632782
172.081649338636
482.763081287359
448.278867564062
455.723170388764
401.710984208889
302.911583547033
346.616492691448
354.907948020919
275.33265969583
219.804008257483
194.749466855714
252.811722552053
245.247160015309
286.48307557371
234.237106789277
263.678590961513
222.602274569229
317.330420291352
302.47550598119
358.204403750171
371.655269290301
311.386401535182
289.71273067261
349.029440305594
209.415884558691
291.877360580994
290.525040937912
320.685440281486
364.155132518572
373.554892993855
123.929202353474
139.960892273357
294.239814980506
219.582933210823
416.205153573791
414.585182982676
432.450165434166
459.081797415488
459.874578305009
446.793512690554
471.306689881003
479.211471387956
451.347990173078
488.64547710561
480.897924371022
485.212671377661
456.23966778511
407.772407867084
369.932295637272
316.342794576841
432.592206358663
423.5682819898
401.298947577006
432.969227114374
430.241153128938
59.898670089725
131.947825378706
86.4761883961789
78.8417053284957
163.330732581452
167.884889429811
82.0049666431483
66.7320653211145
226.319644035893
212.339481435062
167.889527992151
296.516622880497
176.775592631655
242.304751966291
213.974868215603
297.670460852209
152.298908098169
101.296924881176
279.611966950788
311.061667103224
91.0886833174843
202.85774436952
117.730650179044
114.714891648265
449.78582783388
392.597341462949
465.089972106066
374.854224147186
397.79850616505
461.253108623611
358.495468918747
416.859958908322
385.50257760763
475.856798567686
382.223399744794
298.514790418102
289.843734107391
273.010139704962
495.366502738897
529.13737798975
531.410465839753
533.279682707707
510.465086399573
510.0480717236
504.042826150035
522.778356389642
524.562349159057
499.875917062509
504.32228065588
498.431685364566
503.131080034067
443.964116442833
449.878840955466
463.834768072938
496.563510237898
481.506346320992
522.472624518532
535.957783771868
536.0401507133
525.600178752262
457.836684266762
450.767265684517
491.243259207247
507.798896224311
459.192016971773
478.075168859586
497.870707890783
107.558470317826
184.99239978659
121.313138003965
483.069061857171
479.786105413507
435.569578208499
410.253098957876
302.470345146453
327.158765767993
325.758471330922
285.908677037107
220.142430828455
265.561725804216
223.767661291449
226.67007013512
223.088151412866
247.330417502269
189.327056425189
230.521282615656
329.026760887714
324.388595335737
400.771008981493
358.454606550046
307.297763093327
307.424251468692
296.122075193541
364.990926150148
269.081901612035
303.073235694168
316.485954276648
326.679549491441
383.975359424064
351.756103374109
409.717053222017
74.1099414980352
129.37341589312
307.366710811605
206.093131315873
235.786794671263
417.101961679789
437.995527496166
421.147229902707
441.856379834388
471.033886926509
495.179606230969
452.19790809756
487.870953096361
462.513040048987
488.05885818779
495.705089884453
500.493145551543
457.132725640873
486.965518683823
477.01637340339
411.23926186604
403.882078888104
380.290176834801
340.654629601441
460.381304020554
413.559435167448
457.888253385918
424.516541892082
464.548642466288
442.935032343833
65.2033702191583
134.601685863774
148.995269073267
66.7247509140637
119.719045596764
124.136953153755
246.517737292005
277.79718711213
153.337741232988
258.986153105287
169.089630763561
193.216603329568
215.481616629705
289.727994008383
68.2271369119428
303.774107439966
339.651342879798
58.0761106891008
155.987804647269
83.6904530011677
180.059340052935
431.759927085856
474.700788869072
399.646670056214
390.544091766685
446.631400608725
486.752361627588
471.552842740874
343.365204654561
432.694660843635
422.400695284371
478.7805136812
396.877544429227
340.015499789357
288.963484675778
196.083788328068
273.07118443049
512.81653683249
533.30592532392
555.216941030624
559.085164781169
521.430133362216
558.869191896941
555.739169152602
542.315696736908
542.388671569801
526.916762723808
556.236532587035
531.358606692441
540.347780963066
512.067269902677
509.539678020541
477.041854218796
490.543589253784
506.972250841016
504.277750492653
528.948833136923
559.539717099371
560.505413494088
575.979561511283
544.290476805747
529.164491524279
454.038373933134
509.611678392829
475.826196372242
489.407682345498
496.483529155627
523.14833970205
169.966639052773
101.361530142782
519.501145673724
494.711662321752
447.028112485876
390.000482157165
304.025820996731
331.670936099975
326.385643356452
299.238563650797
248.951404078574
156.217634319555
205.285902862582
212.94820579828
267.98409121286
157.648016506045
253.34118593113
315.876471670764
313.079594922956
345.687334122107
409.782813865623
328.557758751158
384.437345692007
295.366648161215
293.541106758795
388.103234340353
253.290652880529
286.796758636369
320.58076266263
327.458090335959
405.6107029863
379.680817578221
344.562986097502
420.377240071796
411.443533253625
77.7148847183184
84.3027169043555
222.390139378756
237.220831488565
417.5209642488
439.974422919863
450.045769277824
450.352715828856
506.698817580415
537.69288225785
467.11302465797
529.517887879443
495.097046722429
475.479273895045
513.264619542138
520.687740344288
481.407381173987
551.736834019613
453.024917580938
505.877415074886
419.488052626487
406.966223635563
400.643439775541
316.088123341633
480.375435414967
427.160440159149
482.249784812574
424.647762282799
417.912745101929
443.394013482861
490.714402551763
486.04920877061
117.287810297551
97.1481161331483
93.2664646492535
70.6079607111083
64.9525559749734
154.025055252766
74.0972760337048
137.680039226433
251.418630332468
274.842195931105
103.905015015695
228.910913236487
136.396831724163
117.334371923799
193.820137397377
220.351473480173
165.490141587391
316.386124258539
103.686174814541
319.435825268328
280.238521473491
116.111996654028
176.478571292887
88.9132907271258
217.133450065091
451.149248008075
481.246618840066
514.610583006933
430.616783139161
362.339859567659
435.297868449352
338.796838491061
458.681428414929
490.089826960805
487.408311870644
371.271398829299
318.781271282494
434.861646999688
418.739528370224
504.589065199593
409.163058395996
336.102517930057
338.12151690938
277.134008757798
251.33081612366
198.818852835873
164.972922928036
147.585045686758
304.200003289672
556.643943075382
570.550217139465
589.746728661544
540.799085801988
593.632165016392
572.880821404561
584.863959345199
596.03834464825
568.672304293137
567.074379283771
545.824623460808
578.465737200303
555.282416963153
575.876447038963
537.679173299371
569.294318197809
532.25921037199
480.126285301321
511.584874630567
542.954541395612
565.324249733269
585.535150983347
559.738559768607
632.30550533655
617.62803505876
549.591692272033
471.313793725166
537.945162417975
517.472060831183
472.105414270676
546.031839473984
211.775691544927
118.374586764223
99.2597119300962
531.692374939881
489.080610945623
467.641476486458
459.746988864101
411.254866673315
280.430443110521
324.870564715212
331.496125398245
264.216363534814
233.083771117474
131.710612575188
134.585971715967
156.302496230404
223.745660479989
264.856521424165
265.756216212585
227.778659305855
310.252903034115
327.817190567961
393.995939793033
408.371825402824
343.911065295886
368.570108127849
308.237348112406
264.574742226299
314.607807723904
380.050169078916
260.041712483188
302.870321341954
336.014690513467
419.044225380101
380.551952829821
367.26787733445
354.637048468997
351.523904886618
439.11321229427
434.366681738907
426.887347267323
190.633186512845
237.092361734613
427.573430051052
430.245484112458
452.064429412317
483.276443410047
433.409720797655
543.922295718391
522.41975668623
545.141360215927
553.109724754926
513.556811893758
460.210562995562
514.727515327125
505.751565986963
523.74046534171
537.624900241647
499.996917623638
581.457820004386
559.949996674237
466.076006063255
519.39747839336
426.779054188509
465.448983160964
376.897388502623
347.153699776861
290.318794461777
450.181460992995
523.545525278607
479.27197742675
411.841134449629
483.688250109701
511.386161977578
479.386503192468
67.2827900789529
78.6829751282337
126.801802199792
83.3054866042898
143.781568741887
106.561902157887
112.138163259937
247.379500183344
289.918534190726
183.570009636794
83.0267525351674
84.1983682493201
122.378708730416
134.333691406926
226.979610460071
199.892422033794
267.074906736725
114.1143711221
308.479317252316
222.714918802233
123.873825691863
173.561886995609
184.852185256103
465.291795289103
527.382593050441
436.39061922427
379.182366296805
456.454258265679
323.960457720698
512.453099889945
393.887006773626
344.44825313241
460.780299547669
431.074185478298
550.177896529199
447.101159034216
378.68907783209
328.855013335337
188.036980875065
303.093384987852
193.281519418862
158.890367797553
158.498273441365
79.7643603525289
266.381130158406
572.605293242922
563.87894895118
578.23043767197
607.007290454501
617.299052005618
613.752004475332
617.1063913261
600.136261860452
607.7288266074
627.445064799412
577.567343618821
623.817624401057
576.570928239241
573.907992630807
584.763046040354
621.010155416562
585.57977590434
437.908128492369
500.256039039547
494.497320654508
552.388313389242
583.964182088293
593.302472055041
617.337302671524
598.90180488004
646.341674828609
651.786931917118
628.546614468844
581.486399373318
458.986090259541
545.231606778257
494.578243354317
538.043862932876
472.86288285939
479.086241341384
518.039218171581
599.311397659674
183.629285224207
563.734318416301
539.521127233295
521.52353715102
446.852412530494
469.507559837517
403.735050500778
290.653794135428
355.126169098888
311.369452931153
253.228666788577
183.330338214202
76.1666525266895
68.3279878007649
72.8379958180765
127.566972230072
247.084204477627
200.821875699647
252.326053581678
247.145650563988
217.494370932271
163.951340913416
336.292737808838
349.168153474351
295.24641593304
394.840534373988
344.128621791422
371.161425495758
285.177754857282
325.562133083877
269.397041332938
306.112536073512
401.307255010699
309.917705384314
348.939076622633
325.746811365416
426.6811484419
422.490041653967
386.609334607074
392.242419157941
364.409581341997
362.844700524644
449.016351091075
473.004375776675
458.899689853114
442.135048691246
175.117316669964
206.351926624957
231.524026836712
430.478214023525
449.56345795019
475.119114801904
526.427948010017
433.447287186239
553.720278837673
558.171689907647
543.531102545422
536.460099590989
595.928657588405
534.533028932182
479.448797308502
527.102511735405
545.3170288102
542.902747569226
577.692423779592
595.969057600349
593.927464390674
562.148312338079
417.987771829498
480.675272825047
462.079005356149
423.1602496462
489.528534673877
391.477892609941
372.277033323726
345.881419770974
336.29843266503
300.657166492559
513.33370107712
548.619406092227
488.664993471627
386.018321083317
466.29018294898
496.60097477807
517.276162745051
538.689097266099
501.307480668069
72.9293053088334
92.0539123379136
114.953610742417
103.56090052414
172.029339966448
64.4872425584619
127.77020123422
275.74778515841
307.677624710917
166.855273830156
104.173118194066
114.595685390521
185.609708707624
140.680212227268
225.002044695925
193.228134890341
121.304805717764
219.746882734452
103.880958451938
236.154787241818
491.86599712765
536.135387109068
556.326450275198
448.498842488304
366.68924375702
471.766214619643
440.883782636833
553.159018493248
535.875726745852
384.013390614948
396.133791978793
349.092706199801
476.395886006826
576.905341146212
551.346396547386
465.923218016564
405.383894429661
289.680574923602
342.614583804336
163.157959234854
161.563859307358
257.352165194237
168.368874257148
91.1106976082601
79.6859050307847
107.590662022269
153.499724101474
219.836485132422
212.838832482192
610.73804857465
592.931992088784
625.801959982864
615.698428660473
640.195251507187
634.224145244409
651.637392739064
604.412261020252
646.540571712135
646.191087907894
613.982191005178
652.577105044011
609.052052375963
604.144962838371
614.907640062408
615.218367030822
643.256120002931
610.538678657987
431.211280475173
389.035232545697
564.317615106026
565.602874061298
420.162954270922
618.069797819259
608.260711755001
594.088223459165
645.944096592985
647.594618876385
674.37828108827
663.377015499275
649.568099798494
462.965223470733
498.497412786399
595.98141574975
474.917528986822
466.384655170451
626.22472183657
653.591980223624
102.661948697585
566.347787024851
559.654711047851
492.094996837511
452.58663862975
377.514966716904
293.319382463411
334.697900240455
322.709305960785
225.329333439275
152.409610905761
94.4580902266147
73.246394770194
230.506372688358
264.256898318363
230.008387004475
260.89689764285
166.451079124756
244.515382563963
141.560106601383
145.830566687325
315.966659079902
348.174215046752
338.699803606498
303.845391319634
323.908666865425
402.078268182809
278.919607817809
333.94279612707
262.35359149915
311.646968901856
384.103723129083
415.309080503571
296.803514115569
352.35453975334
336.757176111469
330.446784467953
425.849518688935
436.334298426091
437.527578596244
411.849115944004
376.354062708576
391.311443287083
385.381114427753
349.138011962511
353.46034435641
496.686722971153
488.152813488164
468.149247170909
468.556201530941
426.811984668478
151.327529887046
181.996956792024
162.216015739202
213.493096638494
237.252644928897
429.51552752194
472.861632793641
500.001425126015
557.536090015714
555.934218872663
425.322375602964
584.944043588194
586.887757799593
559.876760495918
639.84714633226
516.980897405488
436.59449392092
561.701454572715
542.883731601225
582.628610520106
567.78906781995
567.523771594766
592.848196392442
579.135314146623
626.50809899181
626.154999566671
541.908117494331
616.00611706575
419.702107952819
446.648695582369
409.467522865904
510.700275619174
429.238932771055
405.549483397432
324.241150608272
305.448885400258
299.048911171008
273.057540187395
542.181049978664
567.871140814785
507.139416465193
431.008398774916
462.197823103458
476.376702995207
512.987271603226
518.209387378082
598.167768338135
524.327556556833
94.085362976393
70.4193673308933
170.863900524304
30.4182806763163
84.5589975215751
275.363613904902
274.418985168866
296.674146552793
100.618025186511
94.3711163464097
121.465138321376
185.974486734358
123.952632398823
171.771802783578
96.0318341674825
183.357194672731
128.241772579956
240.178936900062
509.938785620479
570.475367491122
462.508604876144
405.524870750701
477.148868358475
334.70207948843
462.407461456315
519.098015645442
564.443462374714
422.322721493692
384.750470551135
364.049085634571
391.757241107211
345.748217332909
271.657344008007
476.986281678334
523.104718224568
582.098972435788
599.522518837225
541.048659619814
498.647487283282
390.790544302156
222.358099012998
364.186260309159
112.70510390685
110.904825311685
204.332699286683
120.977768991222
211.09401182017
85.4308221076403
208.673236292794
90.5512357636551
191.09381546513
206.574097669538
604.51151907871
663.394060714123
609.461650274856
617.150801563591
655.297372768518
644.985923411998
653.930270658852
664.012284805404
664.466234267516
662.057192809872
690.381669561525
632.680808782303
678.276025943698
648.05504470556
599.518648183196
685.876199969968
680.34324410635
642.484861307711
654.470658628915
623.528273036593
632.914145630208
667.071297774911
672.627442792714
656.928837898025
350.500249354472
310.926576809651
619.541898227261
549.907329086509
525.242280594474
622.816235552672
427.193999731072
656.938132393592
641.464777203466
627.874174208965
679.93472682639
741.395308164233
687.420921865217
734.174431391303
692.098450154331
433.37153781157
514.367014573991
435.248804000831
638.917920823227
384.618798046552
426.421254199438
410.013263954935
668.340046594517
643.397655975495
679.792637427379
170.669638459233
576.960790310691
505.852415163324
475.020788170291
390.137732011983
320.663312728307
223.699148505881
260.622496534869
169.887236459616
125.249236205319
87.5744171230518
238.609170767034
248.796947204451
229.300659456889
121.995113204272
128.377931997992
270.225478908865
230.065752374787
81.5470078599256
82.9818471444868
313.274166937741
340.991137613723
353.722146431513
330.055484577587
381.761939534441
426.171614030229
290.381223469432
283.796873403355
324.838566919081
330.103575539079
243.790418787756
266.331491844549
383.308857151825
404.243418677495
400.55016495206
448.178155334452
307.650904656527
341.575638458694
345.342210423383
323.407031366714
342.255648511357
421.952907187864
455.832541076796
475.424093157592
429.265884896393
410.427487951318
366.156480505709
402.294447682002
382.652193613908
381.473372539519
340.25850070926
366.171272892858
342.00807179227
516.463193996664
505.77807660153
492.486668805287
481.925600779917
478.874622774395
438.419387291009
125.380805221887
143.267829159658
201.679475903607
196.416917487335
164.112909454595
210.621044889201
185.167335235062
264.682336286197
451.197799014765
478.838494501087
525.031183330803
604.854831845278
557.103275777022
606.250993900065
600.772340621376