/*--------------------------------*- C++ -*----------------------------------*\
| =========                 |                                                 |
| \\      /  F ield         | OpenFOAM: The Open Source CFD Toolbox           |
|  \\    /   O peration     | Version:  2312                                  |
|   \\  /    A nd           | Website:  www.openfoam.com                      |
|    \\/     M anipulation  |                                                 |
\*---------------------------------------------------------------------------*/
FoamFile
{
    version     2.0;
    format      ascii;
    arch        "LSB;label=32;scalar=64";
    class       volScalarField;
    location    "2000";
    object      nut;
}
// * * * * * * * * * * * * * * * * * * * * * * * * * * * * * * * * * * * * * //

dimensions      [0 2 -1 0 0 0 0];

internalField   nonuniform List<scalar> 
109989
(
0.00321802250413295
0.00985504682094161
0.0261938057356716
0.00228635695385039
0.0563670264627514
0.0201282720665791
0.00215413213579255
0.0745795714045886
0.058831990722033
0.00394267718549638
0.0434683057169068
0.00173840919980413
0.0142742237418797
0.0841980258234114
0.058618071641391
0.0757558284753843
0.0143590882753925
0.0357633800373079
0.047416503092229
0.00748120607690403
0.0213202821346383
0.0968569662943392
0.073902671264288
0.0713382700362286
0.092583824720591
0.00317556588132461
0.0411550455996581
0.0313101507991216
0.0440637162462463
0.00289218137334078
0.00289765968805347
0.0166083147433855
0.110618666599941
0.0910114875529299
0.0707103961286908
0.0901555837571763
0.0704849332354848
0.101339256599432
0.00281182518153628
0.0221487044978428
0.0362471119787854
0.0373358771003539
0.07901953461059
0.00694839924881412
0.00263245393892376
0.00283849877180737
0.0222564606960804
0.120095372618903
0.111837326420769
0.106075224392037
0.0547602142715132
0.0803912198715564
0.103766655204358
0.0785563036772801
0.081369105239384
0.00238125764485283
0.0181947528675724
0.0274253659351206
0.0493774032404001
0.0431224313334842
0.0830929592592155
0.0835819382898531
0.00145996990249664
0.00259896134713293
0.00265708397243687
0.0164866873191222
0.130941937058741
0.116785892634114
0.12144800472398
0.115877968734722
0.109280535245091
0.0538908352015609
0.0961517896750601
0.0690718475700543
0.0953169671722767
0.0973577347501838
0.0828962505562119
0.0031651676011992
0.00378979503623605
0.0313558406758778
0.0158817444729594
0.0705920211468317
0.0757433955590478
0.0234623386868876
0.0570019007843959
0.0778219401701142
0.0982813803570959
0.00164700622094042
0.0024862125681078
0.00272565491511023
0.130228373084917
0.127039634948806
0.126933837225928
0.119248409948199
0.116970152646077
0.106568530185055
0.0439908906880972
0.0984869761043609
0.0583519005112319
0.0875268913213666
0.0862703618016597
0.118408818949286
0.0196866705759748
0.00370320180078902
0.0130187290295291
0.0662706220062535
0.0271832594948413
0.0335568190053454
0.0666955883562796
0.0139476182690972
0.015200809403852
0.0800046349102062
0.0240142147275035
0.0861118438745001
0.117324308018921
0.00187184114516583
0.0193904347020107
0.135159507566891
0.129752719311439
0.133456246479105
0.121959827761697
0.117441649452763
0.021830032223907
0.101748215219138
0.0638964164548003
0.0867104661459437
0.0927865246390056
0.123708066832312
0.117870010043104
0.00508461887609383
0.0123266607955641
0.00237643489354162
0.0850136544738644
0.0758150870637522
0.016900943135988
0.0344079525754282
0.0657511701743081
0.00376082809335903
0.00346407051996684
0.073862835488499
0.0128290076614784
0.0885846240648958
0.125763552089136
0.00923958369140566
0.0171803909582882
0.142835151274147
0.141949979745949
0.134442913153092
0.136364101227911
0.133897111976226
0.0154160776077811
0.11233512766242
0.0572924817987862
0.0831911302432935
0.0856703812833635
0.127131743037292
0.125550746953733
0.0025992708560564
0.028774219836126
0.00173966207216379
0.00269735165699199
0.0933136135468409
0.0759509157099585
0.0779165775200061
0.0246496560123206
0.0742147903842122
0.0748147761844515
0.00401098685663258
0.0802039250384037
0.0285189128866582
0.00435464362037953
0.107347956939131
0.127727213517293
0.137547466321155
0.00280144796815622
0.00334632882048979
0.0134086845959381
0.14852539585547
0.148027355226263
0.141180637433695
0.135723418635585
0.00322767340852508
0.0254031697235502
0.117577817026322
0.0950432215190154
0.128704650725999
0.0439158691631788
0.0636429702673739
0.108725103458541
0.11023935053611
0.136743504991041
0.129826493800704
0.135594773468022
0.0139471466570358
0.0606084200481497
0.00185017888312891
0.00287658468725509
0.0768041160482806
0.0543634141026562
0.0227187854435042
0.0814396185953728
0.0515270209436113
0.0175037036890631
0.0556915940588496
0.0928574007910223
0.0274013863100675
0.0159709488075583
0.106345305328289
0.110404359448702
0.139400489341623
0.146004758419945
0.00326114452517072
0.0031728439221539
0.0252777928057313
0.153366445203562
0.153873229654256
0.15278908901771
0.143441078040126
0.149942174901766
0.138480396162668
0.0127174697519522
0.0292738521031398
0.114303836674696
0.127988471084071
0.0896399159933997
0.101603656360103
0.047238032992098
0.0722913511929642
0.10958699743953
0.107506438687604
0.11789594778853
0.133859059944445
0.139566658609196
0.120905250269807
0.14426570094502
0.133936494826153
0.0141301795069805
0.0532332333038183
0.00272415810460861
0.00261676511494922
0.0851474750131489
0.0692302299181601
0.0411341691387281
0.0959636440402013
0.0721834149936186
0.0565190698498356
0.00559007271277923
0.0709622030186929
0.0143927932386237
0.00230118350651264
0.119376064300712
0.108150295508474
0.110762360257677
0.138803086710528
0.147039696469138
0.151636095011681
0.00328755004596164
0.00338742131079341
0.0163379775899936
0.155021414928175
0.156691127183712
0.157038166078796
0.154953279237178
0.153476789320858
0.155809081724664
0.148617474811148
0.00184774241156486
0.0212210284583244
0.128608245097323
0.100813073852925
0.137538111990174
0.0943883640096494
0.0502484469158233
0.0846551852413241
0.107768220800189
0.11934692223175
0.0956506639497638
0.0962919670566876
0.143763205987977
0.131945209899862
0.151271326538275
0.149160554715195
0.143570025008171
0.0310301953835598
0.0548266020871831
0.0221817583359144
0.0150574260563279
0.0418738647377523
0.0439657971821502
0.0827172225250902
0.061313243402429
0.0277971653887059
0.0721036201048746
0.00532637550111791
0.0777663635841169
0.0606531274699091
0.0289629243036716
0.00177370419646746
0.129005791384344
0.124943304424001
0.0863785014231678
0.128690069172149
0.149191130974842
0.160906824568189
0.160178260828719
0.154481275937221
0.00341453815471891
0.00245499624373594
0.157970303014064
0.158773202033048
0.159278778816671
0.158315921075723
0.156804696225836
0.157855399968779
0.161066166243614
0.144568304315467
0.155117155980557
0.00204359686600421
0.0267561266157991
0.130601001728607
0.116742014677876
0.108231488071028
0.0688759174309547
0.053938580373561
0.077059368797469
0.100852911986484
0.114629350674726
0.10120368926677
0.132846611966147
0.0779109963216922
0.0910263066978508
0.151755130790058
0.152465267466048
0.132732639489082
0.153716812122165
0.149784110363467
0.143202488260282
0.0345265440078657
0.0261140946285707
0.00570393290022991
0.0429945355156929
0.0216119321908674
0.0456543771767854
0.0790586761593502
0.0301726791403936
0.0128274968248473
0.0638051084430275
0.00601545280228833
0.0715532580131417
0.0170538068591227
0.0206324621356245
0.00248592114726188
0.140494602103275
0.133303333834665
0.12127214033085
0.13586870481261
0.0882349807004808
0.128352502390655
0.157762679026795
0.163672043676964
0.166485291479323
0.158091741031198
0.165106749161395
0.0196310928940632
0.159658346254526
0.159736546714175
0.159769981237833
0.159684006487465
0.166107754304434
0.165107340066217
0.164699343104305
0.160514436850144
0.154261945802443
0.164611220015477
0.00240380171245436
0.0188436526167787
0.0185156414420228
0.145100740896368
0.104536372255378
0.122147286651634
0.0892335729514937
0.030053222973894
0.0302754718662596
0.0855251834983027
0.0896154970644471
0.0862784090513974
0.125968320396009
0.129715752465078
0.0953039596876747
0.131933298205429
0.0694566499655021
0.0973004284131707
0.0629567659662714
0.149930096274764
0.160673075660677
0.161396514849314
0.161199053541013
0.128912221206859
0.143713681069081
0.156060233515831
0.158351840086011
0.146946558869153
0.0214116304520229
0.00355885989535041
0.026926027501081
0.0166387436778667
0.0220452856716142
0.0707663982226524
0.0826442766007496
0.0130511953550883
0.0038808235751114
0.0234197540339682
0.07355347916451
0.0646203480038412
0.0940991272314577
0.00378654730189883
0.026469246310781
0.0136749766452416
0.13743816929617
0.147843348968352
0.127319578855381
0.131086944849464
0.138125153312031
0.113391572999227
0.089315100336112
0.127457865840636
0.157639510362699
0.168857229066954
0.169589391239105
0.164310681236564
0.171746489406517
0.159800084046662
0.168641197217953
0.00295189060776663
0.16056464373835
0.162631844182865
0.171369660053098
0.168428094940187
0.168788253321178
0.167337164838171
0.162509131408273
0.167375241705457
0.0136254215592961
0.00660741490039677
0.15810287751732
0.110441367085924
0.118847258124012
0.098338530401443
0.0881579117707367
0.0194145378531182
0.0245051054126075
0.0385616096689264
0.0652618050840994
0.090751551936775
0.0782043535376936
0.121595163877446
0.133825458794076
0.129648171644422
0.0752580113653642
0.10697702561937
0.144378477005757
0.131230264719204
0.0378597735610691
0.106798005995655
0.0780089870138422
0.156790667933966
0.163453303257643
0.161564920947461
0.16530915352766
0.166791054331549
0.136233382491991
0.156088276195474
0.158654496138641
0.158205818963278
0.158408952593638
0.153336076621853
0.0031874181962828
0.00351268127716064
0.00318873644416109
0.0131858545595367
0.00528503192798638
0.0329629159875411
0.0240314729018808
0.076849206641361
0.0656192840721702
0.00289118002614832
0.0169553219312481
0.0132967044329449
0.0745955171808534
0.0582840533369566
0.0881940201916259
0.00296964479019783
0.0167324448503706
0.00294413766700607
0.143938554873298
0.156499732017567
0.146336804048556
0.113521189629089
0.148010412720683
0.154364486986532
0.113386368455623
0.0758281277357705
0.166464656358181
0.185330931800975
0.180472115302701
0.175235587223205
0.187080913834336
0.162257255100462
0.172274620501997
0.167187518408907
0.161439146060894
0.16604450716517
0.172690132527219
0.174159657720463
0.170005882852448
0.171458477632028
0.163670117936806
0.159484957538209
0.173321300422833
0.172416896883302
0.00230007158807679
0.170167316642089
0.157543549103225
0.117405330538809
0.100542707942539
0.107108983089909
0.0963048414215518
0.0345309054002235
0.0040905400130294
0.0431293644052482
0.0675300703810979
0.0763712289966767
0.0961391783292685
0.0701336204000997
0.125242693967223
0.135555796715282
0.123323330175444
0.130258382256094
0.090620598544739
0.103777689739881
0.14832884030026
0.11677077675456
0.144880368973954
0.0316484774653653
0.101935164905615
0.0876186581878837
0.157435956700689
0.164248578557432
0.169839013459777
0.163955314686801
0.171080603895693
0.167607680365494
0.174742532980315
0.137422543185123
0.153161857628939
0.157438531982777
0.16510719388091
0.158706185192385
0.158311532668214
0.158264435671445
0.0117269486895515
0.00292747813985014
0.00325183908761626
0.0185918414992418
0.0188910026495653
0.0117483038770524
0.063059034860132
0.011846959696789
0.0874027702042024
0.0371287041799771
0.0597049953459884
0.0031933887762765
0.016359520877444
0.061536482245971
0.0509620288416064
0.0302430941488926
0.0823009790784858
0.00367181220173694
0.00364168701771615
0.00279644116487005
0.0254078986217121
0.00231889553474104
0.153956189081832
0.160298102614365
0.150057014881588
0.111535828372417
0.15132615851403
0.164171970180811
0.111651054339155
0.0946447650620643
0.180866496275657
0.197587115483062
0.184947675696043
0.187726559848896
0.18812950046638
0.178181775055363
0.187723650039485
0.185374977268507
0.155386585044738
0.17040746505025
0.158908620776779
0.16719294463085
0.177348698690836
0.17974273557234
0.181778209278913
0.168112741598818
0.184355591982335
0.162144347113933
0.152636587063146
0.159286760293495
0.161962772278839
0.00262426486297547
0.180640650121436
0.155709479755847
0.1710272487667
0.141522290573571
0.102350248268895
0.117006205114899
0.0903631778996765
0.108834453502201
0.0230915698675131
0.0337837847916277
0.0664286982494062
0.0827465469748223
0.113716544471722
0.0964442343706783
0.0778018358710891
0.11225177247947
0.130621928732505
0.148652052180111
0.116357116519739
0.14470007536881
0.0671410052954002
0.121932075493312
0.146559340564751
0.150336558723765
0.0176540294568523
0.108280047554325
0.0640711629314622
0.0890933094310014
0.160081157722043
0.158522576476804
0.167509227115784
0.161755893200526
0.176510064439879
0.163206458115269
0.181176705364436
0.17422361387009
0.174009853208583
0.150447602938755
0.127467387199328
0.160634517301352
0.165630330036602
0.17210315239979
0.00269951144228764
0.00792733452363408
0.00255177837161072
0.0200940792086887
0.0392984102042212
0.0154500536338147
0.0253527031338835
0.00269571210232936
0.0749785027462915
0.0126535357257514
0.116858926546159
0.0363326089252432
0.0590904412717624
0.00328286913536132
0.00310765357856007
0.0564874631826509
0.0291925937513911
0.0126832980439773
0.0843304348782214
0.0871509892704072
0.013675813730029
0.0213529825595989
0.00327390287320464
0.0140702873208198
0.16753687321631
0.133019354496702
0.172817230260566
0.128788339219954
0.154701787134935
0.119262019031085
0.108509383940627
0.139296472797142
0.167788876857209
0.17258525895212
0.104870755887673
0.119672526844996
0.0924494559779479
0.0844178630410693
0.193745221445554
0.207950212361269
0.201742666449319
0.202171563880577
0.194267802838405
0.190195369109035
0.188552162428009
0.196043136091819
0.187755036066543
0.149313048885309
0.149607604493749
0.166002707690356
0.158003651157003
0.169171708099471
0.181222460821675
0.19205275989833
0.182694393123599
0.189590268593455
0.147859662558636
0.147752657207747
0.163319520838589
0.153532615055957
0.151709714328262
0.164811442899304
0.00970287630242008
0.0156466679969078
0.192328201344154
0.171677470556441
0.177659456226257
0.141928165458439
0.0838861710509055
0.109819894469345
0.1146183492673
0.0641322998853156
0.0343308678895133
0.0226799630969404
0.0515257499950774
0.0728846670810317
0.11153258121635
0.0771665980083026
0.0941979474962076
0.0641208317794778
0.121971087940266
0.106481354790059
0.143569486472534
0.151643819167192
0.125640717990123
0.110662273695115
0.143873277390318
0.0622868367245578
0.116989332004761
0.117683236263334
0.133952208372851
0.151414154880997
0.154410202404647
0.0152390269412566
0.020450612751782
0.120575563035498
0.070870868614348
0.161741538239472
0.165469372696044
0.163081169275894
0.177589738987236
0.164640815560689
0.178726404215769
0.186541390037567
0.167719147074847
0.152805616355241
0.19014317960952
0.175601912205658
0.182867760218861
0.18206360880821
0.163350121501967
0.139514988052681
0.109238280001246
0.171195701080773
0.170499422051729
0.163945737225172
0.172278668744975
0.173862025055396
0.0022936007333623
0.0130841782783437
0.00344423608717393
0.0031940020356389
0.0343752887667092
0.0359696904631271
0.00326507114817607
0.00249196632609672
0.0732103460903066
0.0637843236854524
0.0342268781293201
0.122400272956026
0.0296474682293974
0.0638806829121932
0.0343211352560871
0.0854918810700657
0.0139182067444866
0.00381339506355454
0.0676978379737529
0.0899546374916946
0.00273596268290659
0.0288437607548005
0.00335729261493155
0.00307269136438313
0.173633440598915
0.13647282989421
0.182713985600726
0.127364302576007
0.142434232274327
0.17927295013089
0.11970079877509
0.157413846493715
0.136694949095414
0.188467121000181
0.141630804255903
0.0861330269318004
0.0910033810812235
0.0724363877614432
0.197504764180741
0.210487839340593
0.208767132404937
0.21144007278469
0.201560428105391
0.204279897257882
0.199405474317324
0.2003876400033
0.196631960843709
0.194366110644905
0.201621807665297
0.18937429369979
0.195317709252842
0.140048410469975
0.138962739081843
0.155389218388793
0.174700966372743
0.175165327776502
0.176507898335286
0.189756339986299
0.197742468016421
0.19224656231229
0.13301731203764
0.141230550014086
0.153928649640054
0.17069921042412
0.148396736275731
0.139210098280329
0.14679760301912
0.00346686486199523
0.0208217115215715
0.00331740688192321
0.191019777537518
0.187981334424414
0.161113731694421
0.143905234176929
0.0808493888071195
0.0953569469407383
0.0925669466573694
0.0669469334745456
0.033645006304965
0.0828606127299522
0.0613324336872226
0.0710955393694579
0.07223626922386
0.083402378389245
0.0448390828654255
0.0704635995149317
0.128054921400848
0.121918641412582
0.163037149022369
0.147119223826534
0.125727896940113
0.122436509307459
0.114329856075168
0.152005099108729
0.103961456763373
0.126452707093438
0.133873638167139
0.136709047270609
0.15628995607057
0.147449241027927
0.164910040566954
0.00311281599763793
0.0159020093530988
0.128663293847263
0.0614003048468031
0.0823405926153019
0.159467913395514
0.164526707163241
0.167830340391431
0.15720026847633
0.183449248179634
0.186676956789977
0.157095108351671
0.174139766450148
0.18584969272225
0.195222129876577
0.193137674679296
0.16283184396817
0.139862986875417
0.195053892857727
0.191606810001259
0.166502072827634
0.159575112924406
0.144724065640106
0.122510607121159
0.184673807043729
0.157193853111176
0.184446038549013
0.173628196660336
0.178901280665703
0.176118196466707
0.00239290369696187
0.0134604619050486
0.0237455231689614
0.00294223967342808
0.0157879235519637
0.0144264858059918
0.0879655066617565
0.110250848056517
0.016906502332681
0.0752042550293434
0.0238293524914695
0.0223746763764339
0.0329969145350259
0.0767472493728438
0.0031367796834816
0.0809415615278903
0.105716640017927
0.00218482323311081
0.0147640237069031
0.00284093637395285
0.0171987346826507
0.158946227690869
0.185522494539173
0.135059911468746
0.130835612918488
0.164911536980444
0.192371105853346
0.180344065556119
0.10199986204548
0.162776393961055
0.154605541339341
0.187760610446401
0.14424535132447
0.105067555201598
0.0844390954543684
0.0298919590026886
0.0699584927418157
0.205575497914662
0.213791608913772
0.222785004657861
0.214531808641655
0.203844940788927
0.217639785353752
0.222608702922881
0.211602800105617
0.218075273827968
0.187744300494107
0.209068014718752
0.206845323569666
0.215232239738844
0.205757267516172
0.194924628544152
0.139097344192338
0.151232929208246
0.167912130370627
0.177310577928228
0.17983737064317
0.180174248457542
0.192020496683057
0.216404760575037
0.200660328911046
0.187007577057639
0.131596022393399
0.162301224552682
0.147504464453667
0.139966486613342
0.13446067829243
0.147760488900245
0.0137277787565069
0.00300853028121153
0.207619125894946
0.193907133727512
0.164251789750032
0.128206179546173
0.0784833683808529
0.0946171680560034
0.0892542640957314
0.0717736475605533
0.0736933808033277
0.0254047462878365
0.0545314194457051
0.0642078710800722
0.096545274042178
0.0290771457022879
0.0825911099388063
0.123356805698221
0.115741580141401
0.130966569082151
0.166402827980494
0.131927205893294
0.159144904198274
0.120197661398742
0.117030735454225
0.161433004949551
0.0956968456301856
0.117892801974906
0.13696224130591
0.138282937201729
0.158581589193146
0.15578272150359
0.145824034547811
0.166016677199798
0.169542804856033
0.00318637947718822
0.00271936495751022
0.0742688042840253
0.0845406504229439
0.162397076480274
0.155722728825231
0.160368834886339
0.15244258733188
0.195885539400639
0.202075946738509
0.149707060312908
0.180076417002108
0.197467469216078
0.191187738196672
0.204305809987678
0.203039479049382
0.143090848325815
0.176196178024627
0.118227934420828
0.204042396183106
0.165316532888678
0.162714013821623
0.151966544903497
0.101867135720163
0.192362101913912
0.161070636840307
0.19443560738533
0.172977588626253
0.171926610581645
0.180970154188805
0.185598844211673
0.186708440519352
0.0120258809174115
0.00303618038426556
0.00391606258427648
0.0030389798234066
0.002838661811028
0.0280029404581124
0.00304761095059255
0.0228893643950653
0.0941351367983158
0.11032803849684
0.00386974870292629
0.0535081208149899
0.0129287373498547
0.008580016879348
0.0218049514454617
0.0321523205181468
0.0139083967224426
0.0853797291070758
0.00388738512222031
0.0889923661744427
0.0621442911773249
0.00314925329535317
0.0160857770556148
0.00292066113582355
0.0302403162323922
0.165269702995817
0.184805008643943
0.20474090237036
0.152068132914894
0.107773904734572
0.156369924392012
0.0969560203311641
0.170664091216426
0.19199859697009
0.188339530458472
0.117451743980934
0.0829221631134986
0.162783309425973
0.149196623847437
0.200240400863002
0.151279495033125
0.100865604419584
0.0990658163362633
0.0727887925586802
0.0617299776226316
0.0305403077148125
0.0164203527847509
0.0144972286343141
0.0829107877733008
0.224937706448289
0.230787995225021
0.236675725988055
0.208007419644288
0.226817852283645
0.214439564312859
0.227947973898017
0.239134826016309
0.221756203635307
0.228717721007982
0.190149263647827
0.221767281683081
0.214133866638444
0.205059987427915
0.216559646640906
0.225406853647043
0.201576898900623
0.116919422688368
0.141678132607332
0.181783029343424
0.182211134937963
0.180925285690519
0.170789943884239
0.22485975185136
0.228801958159862
0.195930350105133
0.134078512718754
0.165461026574774
0.134025421340463
0.106288771541097
0.136126006442965
0.0273162438924529
0.00323284762246593
0.00296656479148561
0.21227318741967
0.187673191863907
0.174842682625529
0.168435872263056
0.136051616465356
0.061443734057954
0.0865472615824872
0.0893546132402885
0.084176516873003
0.0590629726386371
0.0152591062250842
0.017072720168924
0.0278613056414817
0.0736399886695929
0.0983258422029583
0.0918898719393183
0.0643666913356939
0.117368223720597
0.121277726738229
0.156961136799588
0.164725705060557
0.140160587629317
0.152110162461316
0.128160110333327
0.102844665862742
0.127655292835619
0.158756950824736
0.100705903201518
0.128166326756727
0.144716773991994
0.158465543460709
0.155731731003482
0.153368447642976
0.150103945974768
0.148494941022936
0.169225091805714
0.178846361884055
0.17503580087176
0.0519468227547556
0.0848778627126919
0.162975319626034
0.14237678742844
0.157943134606039
0.172242874312104
0.136695855133027
0.206059975222126
0.198499586461588
0.209587946384524
0.198191118515761
0.164086139022804
0.127322385605534
0.206975359569618
0.202934661117277
0.211598744624459
0.213510544199298
0.129049952382624
0.189152721990386
0.160769500875483
0.106726420917507
0.209604480160988
0.170457433100702
0.185896601287431
0.133279999365649
0.115315506161812
0.0878915049488954
0.173525938081273
0.213829712586237
0.195011290732239
0.167952188899209
0.196614272710312
0.197726426697661
0.179463277378873
0.00253012830862091
0.00357905407848131
0.0158113217274053
0.00322280386278113
0.0207143382309693
0.012311886487225
0.0121476838674493
0.0910208805717403
0.121337453882873
0.0290128858398587
0.00285528307053741
0.0028520127691372
0.00819476728200576
0.00434882255719149
0.0349906717025263
0.022403398775546
0.0540684402345443
0.00406944382484741
0.0793450244109557
0.0331258345666643
0.00343368117189606
0.0155370148663297
0.0192060075054704
0.168366201080957
0.208541995259429
0.149206291819247
0.113018977360726
0.16553683617271
0.0859528393690391
0.20118039977929
0.125826916954555
0.0930673783834174
0.176293424113012
0.151204641286761
0.220605519236106
0.172178097118586
0.127523396584627
0.0913564979897148
0.0268719885690926
0.0834234341778719
0.0296761724678901
0.0173924314833281
0.0132612906768657
0.00279881712061846
0.0538828726633389
0.232039705430909
0.22790524992301
0.234297973572698
0.24550255960202
0.243725261453029
0.247160441694542
0.238868748096379
0.221903479351241
0.240684644722778
0.238087843711654
0.233818209090165
0.233690742855187
0.225102046844446
0.218313434803177
0.199668377659781
0.224374825589099
0.234539724014255
0.0935185292837917
0.12148515080013
0.108738265768555
0.164140748130264
0.193546454157901
0.182716674235325
0.192357299116163
0.179553766399499
0.234586615820539
0.224181960923649
0.231498448016976
0.201035198619661
0.117092129338003
0.154852336182929
0.116636462757263
0.133283986321144
0.102638205622305
0.082912018769212
0.0974056404173001
0.164622380907913
0.0167446701735989
0.227318229807352
0.214475465743401
0.203010218935431
0.157738203784681
0.171239279525811
0.128384288949233
0.0648547197561035
0.0997801994290283
0.0738650287411962
0.0725015413648684
0.0314352872516412
0.00296538928734131
0.00254838350363794
0.00290379436651208
0.0148215129217126
0.0895928004823067
0.0572168220484584
0.0875822245434716
0.0794294881431964
0.0554847242314148
0.0285318635452675
0.131730438604313
0.133495235648297
0.0956053920677149
0.157377500852664
0.138447247876925
0.152104838118837
0.117298724650666
0.136144633011709
0.107223165824453
0.120574824241197
0.167077303839481
0.133694064513659
0.15027807356243
0.141393869089702
0.151855232390919
0.158277268599803
0.157033474313345
0.156407441578902
0.153202916061933
0.153256462215529
0.172858910370369
0.19515293332278
0.188094162520644
0.176217448471206
0.0432732597424471
0.0618564383949976
0.0808312378943729
0.135840201546967
0.147780696956915
0.166752221406908
0.176483322098026
0.123155427781917
0.215483629898112
0.207677630936489
0.202869876808424
0.205710887586089
0.204222090135397
0.154289167768013
0.119750053463707
0.213545263251966
0.215777397501971
0.220480912675128
0.231737854367427
0.201821203644069
0.172413153365383
0.153257002093378
0.0667848048396973
0.108134310433531
0.187125329705675
0.167924252410591
0.198344880815544
0.142580232554022
0.124978798490959
0.114702670922692
0.103813711002308
0.0935749995810622
0.210093296263454
0.22491829567056
0.200157654544018
0.15677393632582
0.193308021383602
0.203403973727671
0.206186887429842
0.207730135976078
0.187429088853157
0.00344559918795799
0.00430409787446549
0.0137328462542413
0.00456701875633336
0.038617826506585
0.00231279565186584
0.0144626055316489
0.112719274085654
0.132640030377151
0.0195736423861185
0.00319883710415255
0.00399624206957203
0.0185014169425147
0.00481692043548792
0.0346858998247923
0.0207008359804726
0.00362443133264651
0.0295002367249372
0.00335781555299284
0.036841847586783
0.182076490200406
0.211200014856059
0.22289226130411
0.146860177605679
0.0965971693660632
0.170579304180102
0.153070771852951
0.221733052761387
0.211112546165536
0.114839271079082
0.123553340868599
0.0850584729967286
0.179237474144969
0.235056950122026
0.219145389076292
0.175998112282303
0.13806037585946
0.0651086340728008
0.0950989135645711
0.015794283768408
0.0172025595776664
0.0504169175081355
0.0186856705945154
0.00299750916912899
0.00270698149425382
0.00313734818826193
0.011677833465239
0.0331287483332728
0.0289806061628894
0.25029392984006
0.242286460023761
0.255413108404208
0.247147364265099
0.254787916070585
0.258074943369993
0.249208996067697
0.212686031994057
0.249870888089993
0.242151593560372
0.249992884860132
0.251667647278276
0.239007319994744
0.211746526039842
0.239228815325724
0.205810952582601
0.220590404009891
0.24449257286715
0.087789885369045
0.0523704353626973
0.124319934391645
0.119097593818109
0.0607159537505438
0.177187063063501
0.195745934397823
0.170463008156365
0.212855784214636
0.199667421436241
0.238637659363654
0.227055587534832
0.228905727220826
0.108512064743293
0.102650612233475
0.162007703799522
0.0790496408410145
0.0721440034699098
0.127558476100005
0.172209542638472
0.00251823495849852
0.227646541924278
0.222491798682704
0.182782712974721
0.159295521427576
0.107888067940142
0.063187878866735
0.0841250447758099
0.071322879788212
0.0553108025205626
0.0172204798940276
0.00331191875541161
0.00290975259374746
0.0775037201764447
0.0939641119051496
0.0739293750409755
0.0875435114360755
0.0276751228845449
0.0731596640922071
0.0183500247840095
0.0195719313082683
0.119740796369671
0.135511078963013
0.123524875812773
0.0994890428395112
0.127762524915546
0.168061288299737
0.114476561970751
0.140760496022888
0.102971493897602
0.123603843489644
0.160244133121478
0.174143063604898
0.127015581733949
0.152618530101807
0.144980762938771
0.144184125809567
0.147901984198173
0.148446028341903
0.163522976540974
0.157077255677729
0.157757230228913
0.154852022681738
0.15756365577119
0.14866612340273
0.149496115664937
0.187178644292698
0.203228123252228
0.193642692556778
0.18773530699276
0.167611011565103
0.029962533227399
0.0469804044690664
0.0311728019581702
0.0676692035262701
0.0857876949421185
0.117541423106298
0.144786223786326
0.160868915431867
0.171693517715408
0.200098744635485
0.106495405090755
0.230388098652521
0.218974737062031
0.207583154276712
0.219126024481402
0.134202713739968
0.0893058900532139
0.228810480625116
0.215139726122656
0.232702512502677
0.231781864666031
0.231794725991832
0.241240165149432
0.235664520312044
0.177623765823671
0.1685975574784
0.1375864401662
0.168228927117556
0.0581535345510094
0.179219406767242
0.156931552529132
0.204572309791378
0.159669971308327
0.138071133623497
0.105761121286789
0.0851215874192238
0.0742137148296164
0.0716334658439697
0.223290830204736
0.233028159009316
0.210016617572109
0.17830176656744
0.192801886765479
0.195477492135195
0.212807822148151
0.208964566376902
0.217279828301955
0.182139958241815
0.00391430546822373
0.0024617011820992
0.0344446376430042
0.00158840789421602
0.00269771360186959
0.111667969532238
0.113146469984379
0.127438603557094
0.00323807458385096
0.00304578937133486
0.00411484449586989
0.0195245570548098
0.00448248909541768
0.0150971623762025
0.00328585652501144
0.0165046853888091
0.00374549908255493
0.0363073554684417
0.186527819646909
0.228194690962458
0.154761986655079
0.115441344520178
0.161498984409949
0.0725449980449511
0.163304505048861
0.197609825386947
0.226196251635311
0.138392840094688
0.109840622659334
0.103506440052342
0.115470262017674
0.0768880475498546