/*--------------------------------*- C++ -*----------------------------------*\
| =========                 |                                                 |
| \\      /  F ield         | OpenFOAM: The Open Source CFD Toolbox           |
|  \\    /   O peration     | Version:  2312                                  |
|   \\  /    A nd           | Website:  www.openfoam.com                      |
|    \\/     M anipulation  |                                                 |
\*---------------------------------------------------------------------------*/
FoamFile
{
    version     2.0;
    format      ascii;
    arch        "LSB;label=32;scalar=64";
    class       volScalarField;
    location    "2000";
    object      p;
}
// * * * * * * * * * * * * * * * * * * * * * * * * * * * * * * * * * * * * * //

dimensions      [0 2 -2 0 0 0 0];

internalField   nonuniform List<scalar> 
109989
(
0.911998975455169
0.512208552682898
1.00106910464692
1.67880882084347
1.54721634983778
1.17527418286086
1.13008848204623
1.34585313261765
1.05591250595842
2.421048585237
0.825627035794505
0.519274842177868
0.384378048950018
1.48364910689448
1.79813508488783
1.22090539815888
2.37907292149661
1.55705287279706
1.25821150162303
0.15194290011636
1.73586267856976
2.58639654625382
1.79309340891251
1.26017296715724
1.88591911888732
2.89699180316333
2.66421920486834
1.49984736756557
0.454956444992934
1.08364276149836
2.64084626077311
1.15451399208642
2.3616414835784
-0.316062628233423
2.36023967478827
1.66717635877856
0.187080460505843
1.32172383569581
2.98237014280196
2.56336027671236
1.75867210474951
1.95737493943326
1.46968747648206
-0.0880139965062395
2.88162077624425
2.64609145075829
0.445432802163602
2.56117617586458
0.408456848798365
1.83441768800926
2.10151491474383
0.62861951167595
1.97423323671531
3.39334519948157
0.30820457123991
2.9734754723579
2.63196124454405
2.4571235893992
1.47387431666868
1.32857010155714
0.761488998676334
2.51672943746616
0.629518574856357
2.75147330855932
3.02062647681852
1.39532857890264
2.60460567580542
0.723809339081152
2.46708369905346
1.45823114827358
2.63927923228354
1.2210534753938
-0.335953917931863
1.13694294382997
2.68089397849221
2.25190260292807
1.72513150166652
3.02740401242696
3.11876294978423
2.56383344731202
3.07326392241675
2.02145254426737
3.25673612575384
1.01817571156356
1.18989053472662
1.04363181310048
2.74323775350266
1.41732357683547
2.6250368427627
2.8538891062391
1.4553161218088
2.00150656535837
1.43810050419882
3.01568992205359
2.77537241520758
1.04931193738986
1.26359910842201
1.98694943507511
1.19933154870189
1.17533969008289
1.48104189027222
1.35998686763229
2.99520338964069
3.17387383320164
3.23623104764908
2.6065523781749
2.90059354423267
2.83641312912883
2.91010402299266
2.21305101628954
1.29977586072799
1.68834219264883
2.27838111501535
1.95535876496785
-0.275421176388106
1.55258986986206
2.64019318302126
1.17088803367679
1.11779139073454
-0.187180596308451
2.94657097482879
0.964575800040159
0.645516191633604
3.40849818100616
1.15777046608625
1.35473625518843
2.29049036317622
2.39529489723471
2.14416911060164
3.32387189383118
3.28557771757223
3.58593736909031
1.52147973482407
2.8708399794255
2.99722219019537
2.81220504000332
1.91231187292926
2.30897648502097
2.53585598132743
1.6452593735557
2.62880860816861
1.18508203462204
2.31219362308285
0.0919221091409404
3.26169648158616
1.55831122150077
2.80363300861983
2.37354040791467
3.22746776918557
1.19331626011994
1.23468130053069
2.63236027804406
1.36684239378382
1.0107433114317
3.45535692443368
2.15984010549944
3.40139855283844
3.71956931322723
3.06683386345958
3.6574403143511
3.36375127473045
3.2299340013344
2.48668645811918
3.09391398751458
2.61654947988808
2.66176163734065
2.45412382911817
2.65418508390175
2.02240804385326
1.76877510907126
3.22903141839741
1.36698887651655
1.44424469928168
1.42091112253756
0.548080518493881
3.70743457626745
3.32756640726761
0.5742828118164
2.15199174274218
1.99509043619445
2.82136960302482
1.19212495291004
0.277533247358938
2.16847847516412
1.0162962649212
0.803394523539661
0.914985884741077
0.92514414120622
2.90749637355955
2.77282298365401
2.15619483168507
1.85255859541475
2.67828993623286
3.34666574038714
2.30223831884851
3.74295104220336
3.63239590041674
1.51860249436737
3.43100070750166
3.36226839055704
2.81700072873029
2.65720708055723
1.80481271954837
2.55782086295113
2.65819026569704
2.61157247713766
3.15519290932873
0.922156217269308
1.8870444773997
1.86405977815666
1.44467122641126
3.48132807639183
3.87432674767135
2.85678551940722
3.38708338879923
0.794940325704497
0.834835119518875
3.31826094206705
2.17460518843942
2.1873180170611
-0.0277476495671307
2.01710958532405
2.97746153761973
1.7293564455655
0.278260439789891
0.271705826376454
2.07801805222168
1.80245842432489
2.08274446122753
2.19809744576021
3.12297867140255
2.2780256614509
1.39502953208448
2.71725140977786
1.92927581927481
2.03820877303587
3.4671288871843
3.42513452299327
3.75818381950644
3.83839395476842
1.11316012558631
3.96858760938556
2.84375411802031
3.27596446204286
2.46913115928525
2.7695055485117
2.91078812235014
3.19908418920884
3.13522167237485
3.70139219992599
2.67696324523838
2.2182147226552
2.18399218545462
2.53693794206825
1.78793340201335
1.00472764375304
3.86367848144603
3.71935599921368
3.60514968163768
3.67006198313655
1.49496064977977
1.95399151440832
2.80938985284083
3.38676022918977
1.85136201662897
2.15338772368641
1.10049762708734
1.31444062320616
3.08975799219576
1.18191523402286
1.20310285190669
2.36851664856892
2.09008401076026
0.202785946588774
1.88128853178308
2.49450758993805
4.41450132343342
1.33264413553323
3.16840428256598
2.21238718387893
2.49339594753586
2.31565975777862
1.16748130401249
3.84502882564221
3.44185799300145
3.91031270542346
3.53908623686573
3.2059961853336
3.24722977556837
2.79749914904169
3.52703666956482
3.42653537495112
3.27351731527137
2.90353651746814
2.16553006215346
2.07956503713681
2.72207926312401
3.84292695130288
1.84145244284905
1.51418807524944
3.76804969046775
2.23906346577993
2.28721055298463
2.02194741121753
2.85996976163732
2.21865966987276
3.79340142017538
3.78706198892543
0.731303734816349
1.29009005894494
1.34213596395586
2.48677861338228
3.08952890590692
2.00899110488446
2.299537886856
-0.318380286216582
1.27695891425827
1.70370182676209
1.59149801855508
1.52635727349322
1.69646554759435
2.38430827385776
3.0968631187604
1.9005802051933
1.99542778171011
3.98546933569846
3.2950466277759
2.60912310205216
2.70442776587811
3.20193045754334
2.54832038989651
1.72209056819849
3.96727097263955
1.79546937881612
1.91198310675141
3.28189882263081
2.97394522602075
3.65989478357721
3.49282486764226
3.8515586444999
3.35548863882113
3.6990222594723
3.32842528128138
1.77102418209247
3.60113082400729
3.86571666780476
3.6588434637896
3.2455968950161
2.59590756844281
3.58710015726005
2.73394459014191
3.97868077018089
1.15599045330082
1.70949325428709
1.94462947722688
1.27940386823968
2.10323900978141
1.99997593184391
1.11531946310251
1.36744685443179
1.63239476507855
2.17234384201298
2.5117784228215
3.98655429717814
1.77727867743503
-0.103355008850593
3.18158598957928
0.545315905331298
2.00059597481235
1.41143099791749
1.67430021398541
5.19808173283221
2.54255225462683
0.747280671890646
2.15861652147073
1.26750105059225
1.86047220409354
1.49151312472193
-0.792529443297478
0.484248638703162
2.15886367634791
2.00164951761073
1.32917045442356
2.22500391657638
3.01813881170139
3.29990209288881
4.07928455830705
1.53741606207457
2.33655146412103
2.43006696505909
3.14460060087845
3.46719686736802
3.54690156688586
2.59463533703608
2.37826861895881
0.136151809979526
1.03624773563096
3.19873146432414
3.47915353648845
3.34707006894758
3.15051680068094
1.70789201413092
3.72372852602598
3.89457653123207
3.77065042774074
3.80205545429426
3.21186263279849
3.20133499228954
3.52223903680442
3.89487595159502
4.13312768138037
3.86639154586021
1.61249822792209
3.37502678266503
2.1848852623121
4.33571874814409
3.75481059097284
3.75767946359093
1.82550314291258
2.45622114901383
2.63323118171196
2.28281811599165
3.29371067491133
3.23628212969771
3.33609784382171
0.546596582797971
0.725783193026808
1.65850529427441
3.29015792835351
1.53334262866379
-0.340761598663112
1.74732263326779
1.39757336577921
4.23688066433228
3.00665901396766
2.84512463141546
3.27213154192299
1.18543029850774
2.23973100469039
0.820268084888652
1.04225997527791
3.24246228506564
0.674230984833772
2.91376122040591
3.53886442528923
1.54940579700764
2.71528783010145
0.721556188945547
1.81836633158524
3.14287678219947
-0.344899325444668
1.63646678684578
1.97884599949773
3.47265861039428
2.17628324286494
2.40864805981299
1.93934387624629
2.00803485103307
3.65887997112165
2.90798744756547
2.78653419589311
3.72631569231834
3.79313301871418
2.91982065624916
2.68145865590887
2.51176638353628
2.67248742787916
2.62021812848185
2.46242358898632
3.89820372606423
3.5062570061342
3.14387950071018
4.61868779408382
2.88942433249426
1.30655004390403
4.86819721292863
4.03292228965963
3.71339234179261
3.79463296731361
3.61990156419816
4.07400538502271
3.97234864889463
3.17459543417726
2.73037156639279
4.01887632466704
4.37658963645854
4.03087613989049
3.74297784462368
3.80718890836734
4.08536589919169
2.8672534710789
4.16505803089665
4.2060768072194
4.41930684762949
3.10968656717318
4.96876324359239
2.40957717131753
3.61011826981077
1.91621521689585
1.77254067106641
4.09706322213069
3.83115280810185
3.17634262146539
1.77226148551073
4.22330707619481
0.193345343894388
2.98816691046996
4.39705574782644
2.22143402290345
1.27614453188022
2.2929491524445
2.47917226636456
2.35009783873687
2.14208227969985
1.09210349353035
1.6694215968669
1.38365758282157
0.844924812583077
2.47682915579222
3.64512480614064
1.51629446048057
2.73199681630467
2.45281684980194
3.45528525190897
0.888639763659876
0.894465374905157
2.88040464550657
2.30473338808952
4.31080557197418
1.5222320315774
2.3030497495435
2.92365751573426
2.64436310913193
3.71760250361283
1.20296830093769
3.59707946540369
2.84989664184289
3.94520461427718
3.53674300863195
3.96578411862504
1.37717196643501
2.74927609854595
3.06214903110454
4.08327022535646
2.3565562494425
1.62496520071758
3.14820660946535
1.44772629633232
2.52696838717717
2.66717532962406
2.00073947315538
3.45029513604639
2.22033074081869
4.55172316644845
1.18723052077844
2.44380585481758
2.92137804500113
1.58051937421999
2.68493277464206
3.27808646346217
4.3022967849164
3.65123069083998
3.84839119620268
3.58957638534473
3.6562399254697
3.59832578466001
3.40223742427443
3.5235959056265
3.58686149354152
3.68596794191093
3.18984997330943
4.21937838845634
3.91512787723991
4.29974738958954
4.40307158128042
4.36403866549051
3.38660728128163
4.32940172367284
4.23822132240025
4.60752602560702
3.67800234398181
4.45665711023261
0.466583472170371
2.13064651662337
0.986317987382211
2.76329050090378
1.95971964484062
4.52539364622536
0.944647149606838
2.92155278128996
3.03539692772268
3.83812077946993
1.15398309171741
0.273457554097828
1.66432220848392
1.15996284402298
2.1103487132937
-0.425985923695328
3.09986279359044
1.46643659458629
3.09874503838234
1.05369597137473
4.26181034819908
3.52040404682001
3.54683556233288
1.6431222102128
2.60026418593182
1.76255411289903
0.250155741923832
2.47148101919585
2.57288540185059
2.35567127177484
3.53764478230951
2.0940576804158
2.44187251781662
3.71044826760807
2.16568498023829
-0.334123319820998
4.25372447195489
2.97395251367998
3.19509868129207
1.73848421685938
2.72537606913085
3.60710674692993
4.10941452734305
3.63645702358743
1.56045501613789
4.14016245803654
2.54467834473345
3.34127544337988
2.77348160777875
2.6339598488085
3.33417934069058
3.24452453958807
2.50970171818864
3.06025996990986
3.88248633918351
3.1916945565095
4.09561804038903
3.75718814165861
3.35656120565563
2.86913313449163
4.29150887463139
3.18640886056849
2.07482428408167
1.50889320205698
2.51280376096653
4.48149056038328
3.83251511144893
3.89122221943998
3.21142381384784
2.76509502082622
3.05654804738326
2.280992572739
4.50338638745907
4.50432386250187
3.84253301319874
3.80217353395205
3.98450138605576
4.18329511590774
3.81720622824131
3.61666128281135
2.24554006415524
3.52607026339975
3.13043935379299
3.97409094172976
3.87395909388254
4.27999095695586
4.36155992240259
4.55583582557158
4.19932537633339
4.6090486816726
1.08773558725229
2.57009562468593
4.38415296228892
3.74754019326688
4.7086476950128
4.40443820453334
1.01662893095506
1.5223102276338
1.67174963848145
0.392724984850322
1.95746708587284
3.58976758340808
0.766075231961188
2.99111767724355
4.02612596887175
1.92692556924799
4.77289043340887
3.72100908595203
4.0261316423191
3.11247222164833
1.94921992272657
0.423713761163622
1.39387087732932
3.16341454152478
2.66289679484127
1.9298275624359
2.46347865361344
0.303729138006705
3.53839444410176
2.69286758634742
1.60363631867614
1.05001422993461
1.55616238494749
3.53700282288188
2.10843736840676
2.64653534739662
2.59235352447492
0.73207827887439
2.27820541271884
2.10608073538776
2.24675915410156
1.15596047764217
1.95556519292463
1.91331623422836
0.765033478637178
1.36196445230991
4.41695320650435
2.05143682901263
1.77416396670862
2.26428799761944
2.74173488034437
1.23250545710766
0.178761213129237
1.72251170250185
2.70511824210881
2.02262192104452
2.9376401095247
3.32698519361535
2.65442639653026
3.4987717597002
4.0607663240961
3.29971725253449
2.2926229576253
3.76049972902181
4.00458507612665
2.71116661150085
2.88147673861141
4.36257623288935
3.46432015254662
3.95902999761574
3.32407056231773
3.02336765282742
4.44727493829651
2.50486698595999
3.4127985630721
4.26198087095334
3.86395645581956
2.04802593522348
3.5469413894575
2.59071422012577
3.07999065612748
1.635552525104
2.55982096813516
2.2727338196916
4.6960482106355
1.68933093716787
1.40863424672851
2.01827791576144
1.9191156944546
1.10279603515547
3.9371589387134
1.93042645051164
0.979758432032192
2.42374367971365
3.40511626680906
2.57817741125439
2.65639772792237
3.50689539859447
3.38716779534691
3.99637833850675
4.50778212922859
4.56468340835036
3.82527280738125
4.06653281513729
3.92400539546114
3.68522146178993
4.37550744301191
3.6408763194429
2.95503072176897
4.07131436882355
3.69162920767931
3.03010206677212
4.60729721243576
4.50604524149162
4.67068744267495
2.77816818570322
4.52681011010594
4.74948709076971
2.40085511929379
3.62579269086045
4.94201361914738
3.55701955964872
4.55710153512001
4.91359876248093
1.3115277977548
3.10616390065024
1.62916451855319
2.91147777627064
2.74675505768315
2.8820741873093
3.10546768464574
1.86553915822529
2.39341402866983
3.07105344452583
5.17556553368319
3.26322712769353
3.5817392360824
4.74910538321402
1.02006366849919
2.01030504935542
1.41713326015047
0.626566053809662
2.4752815200117
3.60099544181707
1.57107902048719
2.46504051835327
2.35061695737028
1.91963297842856
1.59538515249635
3.76213800764337
2.75054475856907
2.63602855435377
1.85967552380927
2.53690103208505
3.84845316380317
4.97955227927
1.95227153959986
0.203516780770461
1.50489236861581
1.55721234007261
1.48137675787797
2.12539721491401
2.32728482527692
1.59285706175464
3.31530625149404
4.09929658272837
2.12151221356519
1.36090050021822
1.0315977246807
3.73161016067892
2.75385899284885
3.60273970786278
0.426049389314785
2.19887846761216
2.16618933911191
-0.400585043757252
2.72749517367539
3.671343858447
2.92825850171005
3.90091926490946
4.53427860130652
3.94411812764843
3.03076888576862
4.03692969206483
3.86126053153551
4.13714760662876
2.37135845618204
2.47187676136019
4.99645516042836
3.10285439047295
1.74869812667453
3.05483428353622
3.74865980252568
4.27987105864701
3.27768670067618
3.04842590274454
2.96621872819743
3.10770007647167
4.94358590357352
2.70605924734465
3.90295539641802
4.39016646136163
4.38960639089598
3.66053726470952
3.04630489190986
3.1331727573154
2.44951742671105
2.90263476297958
1.02974220645204
2.48364006511772
1.93725835337259
3.91277768510928
0.427787844228283
3.15102114924382
6.13974227153437
3.84316869407639
1.27965225065157
2.32450975303508
2.71080401625917
2.3522081371892
1.93063243447566
0.741637157031859
3.38037047482269
3.58159142154567
4.51986261338361
1.39245609839273
1.99568498925626
3.19913423103664
0.379005286832397
2.96711934013306
3.64538462601263
4.49194223573587
4.24084504212981
3.85354204288329
4.22872827244742
4.06146320625625
3.616879025283
3.20821553524911
2.79355857632495
4.68372932619407
3.09291503029231
4.55460851258892
5.06118850295147
3.96565120201768
3.80493956116533
4.73976839973279
3.6685576809121
3.66381458775208
5.04279051333021
4.27303194680969
4.75456326290152
4.1990605841564
1.77677572520923
2.14551713030047
2.26500623225369
3.95564602750837
2.97920909266054
1.70426522420307
2.11516219873215
1.81926882790474
3.20035424260283
1.88091934619539
0.546284382669791
4.9317301573021
3.99218968577552
3.53852624325065
4.85615143084018
4.05541467929056
1.40981451429843
1.61916147543683
1.16326312274007
4.12826694573833
1.19566005783644
2.29353196851443
2.97333110206396
3.91057207357638
3.16659418596721
2.9430876720938
3.8245072611075
2.81302404914149
3.23958609436289
1.1711403788197
4.67835540004987
2.1422232850686
2.17547059209349
1.41322016569546
2.47948194977596
1.84309376415679
3.02436750092953
2.42251723172151
1.97958902674119
3.01525459333064
2.67065478883713
1.23566409535994
3.35216084963082
3.44437762166316
2.10152509004823
1.07157907566639
2.63489097890614
1.8270518889913
4.0781846898937
1.32718203101952
3.73123452934008
2.01250772894617
4.03805520084551
0.723574798914734
1.10538089891645
0.612249194329744
3.2452684313113
2.93413116193629
4.34104452617547
4.43657892416557
3.1532807951649
3.01819271120512
4.09871637587502
3.21850411323046
4.06324651117064
4.03886193691407
3.30583713631409
1.35807842845914
3.54524578079909
3.08629290426767
3.19620947943263
3.16336413638477
2.87409623167867
2.70348018476059
3.34771744543341
2.74827661352288
3.24305730205709
4.34169701326567
0.43462209123473
2.57398484672029
3.20966807525763
2.54005885183257
4.30139404935628
4.6114448361739
2.94616272961795
3.57177881819019
2.67856610544525
1.49366251768381
1.72236723099037
1.89387401743226
4.17139640182099
2.8783748059021
3.91274044476836
1.88137311264112
3.29123909612425
3.17515839632446
4.24769626306206
1.54989376680461
2.47176233274226
4.27216786206284
2.77166888713348
3.45870024895733
2.98442285107979
2.89870796383227
4.15920268778009
4.03655931956593
2.13202203591098
1.94340652764257
1.40418934898949
3.82130826216929
2.69320408222381
3.72788025240307
3.00247170933768
2.68222346052188
4.31568737759761
4.66634801475182
3.81548858606175
4.26503504354489
3.98854519167985
3.83717401123671
3.94710891206173
3.67054636847716
3.11966551030081
3.12559403763638
4.69257676987666
4.31181974038693
4.77211585368497
4.56787516150219
4.54461555632157
3.91039862489863
4.33799529306644
3.427949841384
4.80031448265576
4.23831243181265
4.76513013953474
5.05273833978007
4.39486807294523
4.82328456606164
3.17037818108123
1.92313747782139
2.78103309902148
1.65376222965782
2.79172433943376
2.14913791562742
-0.812067844556187
3.0566685242908
2.9625282423451
0.901419305550622
2.87024183506806
5.09000106388328
2.58626103258729
0.931062775576655
4.40301514438658
3.0413894166015
2.78258798871726
2.78048999496359
1.59954260613955
4.4652217934554
4.95100684051902
4.81654241272106
4.33237110745774
4.79999247519428
3.16008610396692
2.02148066972985
1.3514256163487
3.69281218347403
4.34959719835668
4.57401395293207
0.810080706032699
4.92565816931671
-0.523481892193063
-0.546947541897075
2.89344429351529
2.17955345099845
3.52805289792829
1.21006278938533
3.87651311704947
2.49707023316343
4.26705276335842
4.86472812938602
2.62653225116001
2.46736968727466
2.73839698998322
4.5858546020796
4.33712814411783
1.39442159750463
3.69102940904933
0.797894774531192
3.86003355725714
1.78875489543162
4.26485085506682
2.87315663583962
3.43180606948744
1.45491681231624
1.7047875546028
3.43134386725813
3.6211742042715
3.70594772985728
4.81345578509299
4.38340212658105
3.50132550274506
2.67051786407019
1.57329145905388
0.854905447107591
0.999076239965517
3.90642492945102
4.44548141219468
4.57966067168109
4.50890849835372
3.76730154534338
2.91894417495647
3.72867233921157
3.59815547929939
4.00975427800616
4.11263583389457
3.70683516676136
1.82964683386675
4.7697262348925
3.25254177245994
4.15205672886421
3.77707736159196
4.5612688044025
3.45180794689692
2.47475014536407
4.18754743000699
2.7819161675745
3.11695645025272
1.32723890768715
2.00620744565139
3.80705850250416
2.72882266201989
3.59555336668114
3.89223433905844
3.24798692106455
3.22243177948419
3.63771900499834
3.71967753300629
3.24242320021545
1.57187579202639
2.12637682686753
3.24850789264442
1.89494206224795
0.542455197013758
3.43003416901077
0.432788718455916
4.03517250680844
4.06107048396844
3.07608307748657
2.23168584037494
2.97205820414877
3.2520945014997
2.92634231969394
2.30236861256137
3.90734943879651
3.22640609143237
2.11449671583178
2.99831259407539
2.52184511796656
2.67010828099782
3.50701575563907
4.09913490183937
2.69228767874174
1.41139620624711
4.5804184861025
4.02525956184253
2.78863665489738
3.04961139299072
3.18810227064278
3.17078446201994
4.51310592147771
3.73189084913674
4.2848319308555
3.98845972302534
3.92044146681753
3.87042430618483
3.83093987392189
3.29606520691081
2.95029801332563
4.69767468839784
5.02559392602466
4.94400752471645
4.65780554684613
5.52803863670951
4.30581709119068
4.58363823573533
4.3463955980144
4.74838480396386
3.98981805318347
4.24565515458812
4.84983780519627
4.12860683568944
3.17704674409864
2.94623923952038
2.96114603227252
4.23900747091744
2.06246819274176
1.74906013048092
1.29495259697489
5.10906878405515
3.67482441814167
2.8729999577666
4.90862945553135
2.6443547577082
0.773750169791471
3.26076335854121
2.53913877226205
4.51825068898269
4.83123309494192
3.05868719308465
4.84275770823887
5.05084697738172
5.15444930929439
5.10063426301712
5.20149667055304
2.00602648062772
2.58595434671104
4.06182635802256
4.77257692034651
1.81096373771986
3.34411513137564
3.94967104586943
3.33271576240729
3.19124545596107
2.73851140417606
6.35430639182152
3.54907677931881
2.54162177246731
3.50174194825098
1.96520699708993
2.32889708776413
2.92629363267471
2.21333327931365
3.0533905200683
2.66789655519422
2.69614325152366
4.13255517370072
1.53972544488644
3.05263849436096
-0.736988993256611
2.09589570350155
2.14439953384477
2.529737863643
5.40513111879809
2.89156060790572
2.44387815373037
4.03657969172953
1.14662811414899
2.27278918113687
1.5665021828156
2.32496740691626
3.24465322254884
1.62174822025956
5.04453716309948
2.11080160778795
4.6021204684431
3.33940969358375
-2.14612778409201
2.79615725323227
2.18827570732775
1.01415378180994
4.08222716068411
3.77995548377797
4.43419829823617
4.67813588779418
4.71863690885706
4.5818425837468
4.08825062179067
4.14565883797418
4.1490148796699
3.7737593069009
3.1096237255276
4.21949529280602
4.20786379097682
2.42535600735461
1.94760704481319
4.73543993290734
2.32337713892863
4.5172296566577
4.04797750685209
3.18862186897555
3.05210058076033
2.8766675308834
3.65470742459602
2.67552297630332
2.73723093334414
4.18631347543078
1.93317802871753
3.16439277441417
1.21781633673609
4.11584444616942
2.8878808608889
2.59390493938229
2.41371519405299
3.0211991069968
2.38878780359309
3.42624850361544
3.30201132287541
3.71822413189087
3.28786142791735
2.60059634655438
1.95509166961222
2.06379965507742
2.35336359838792
3.88656621570809
2.28132668250763
3.33062712253502
-0.67187314829781
3.70316497179684
0.862488688653245
4.36303658140656
2.7406791468728
3.2480701162106
4.84137781467986
3.56937345697215
4.04575204862318
4.127002714314
-0.899338295212663
4.97614663638796
3.00550479169538
2.2514979719184
1.14880829131154
2.90762505960942
4.51230271934969
3.36994829376036
3.60243111112206
3.12296045540648
3.46007650062199
4.06035329595803
4.49736992183319
3.47362133198027
4.95471615550185
1.83269361546593
4.40866799649431
2.64785204920478
3.55287473020235
3.54011771234859
2.83442128158984
1.65966316805373
3.70504190899334
4.21674737345543
3.83507148827844
4.12962654868216
4.02670926258989
3.85472360133023
3.73309834676559
2.02961783092355
3.41694510142003
4.64043880710041
5.08160319261721
5.44299133951394
4.83315174416801
5.6485997429014
4.49193097990647
4.61667993719936
4.49504487604419
3.81015572186572
4.38593583256173
2.10194423536818
3.14338772833723
-0.221659461082774
-0.751575383906046
2.25392198520049
1.95966444201335
1.16170722112633
4.26479065343605
2.15354245679643
2.57487322705661
1.98738295875
3.33563067224716
4.39280181484926
3.36771736294342
4.94278509964158
4.23784797858017
3.85673779446247
3.65000813138565
5.75978385512115
5.1325551631853
5.34507256412065
4.78626599944661
5.32315096902792
4.61722286450378
5.0735762602855
5.58063044956999
5.42406653958806
5.23393107481078
4.79777431320103
4.54901830085364
0.21017778843963
2.16775251211227
4.11913715917726
1.89687077118913
3.41530115862101
1.80354712550207
3.66064982092411
2.71388889060667
1.49264344167663
2.21162660662243
4.66056096584208
2.71259404240681
1.99499368041208
3.09816400734758
2.0739579853794
5.59715817965605
3.0477520671526
2.8314318614783
1.70643255639019
0.234923713914768
3.8979821782378
4.12753176027529
2.74646012869114
3.76190569369034
3.89365196488268
4.03636972393719
3.05256475880774
3.50805897546991
2.4765344940218
3.25313012726742
1.23596989115149
3.31394729608757
1.18561838936415
2.92975391704505
1.40667180086409
0.858309594689366
3.2811230785874
2.37583767274148
1.52088401541311
3.34918847858278
4.56695243570922
2.05098476972788
1.66186092841047
2.85563576763178
2.88037728281949
2.68652010582901
3.7995176110172
3.84288068422585
4.42903022493996
4.57464664475381
4.30059716343212
3.87992991776289
2.97712452338402
3.65070861614001
4.64310929994955
4.46310321485952
3.89392324114271
4.44686107945091
4.16015295363644
4.44238407497167
4.03098251162553
4.09146519998278
4.19830318382054
2.50420949141016
4.00995886570746
2.27837547475141
1.65993469085115
3.48213696668043
3.10081274436487
3.11873805262585
3.70174267169024
3.75157966603616
3.15944421493413
2.6669165923939
3.58279106741442
2.50701441433869
4.67120093399177
3.06846339160791
3.81462395815624
2.60302225918079
1.95345155401027
3.17788549213056
3.30743195851579
2.87775499037596
2.49942600167814
3.01424345197054
2.74623487673753
3.16643045507103
2.33502097234379
3.82474036167807
3.56505566883012
3.77517817956923
3.13770875104168
3.64492019404374
2.51181568115745
4.41751192444002
3.82129403492322
1.27075773170944
4.03000606738779
2.3446660662599
3.96313994439832
5.54519731172938
1.75450463560054
0.496028056950948
2.22655884901145
2.72487717130819
6.14178039103025
3.25310049261154
4.77066035390624
4.06150625641414
-2.44197771081665
2.5144277857185
1.14391293272782
2.97022767742293
4.80072610242735
5.46087066145282
2.66109656467268
2.57590150746319
2.39953560956164
4.43310919931999
3.82642085035899
5.3881566938804
3.29673651250478
4.9582217216222
4.77984165921048
4.20123078995206
5.07376283930173
3.35500187162391
2.40325126021477
3.48625811213008
4.11448091081456
3.25762928093334
3.8801210248858
5.66509800063382
2.28885910803224
5.57276727783641
3.82371307319119
3.80324609929736
3.92728418054896
4.06455893056697
3.85579967750312
3.84381656108258
3.52945999371307
3.2842166585529
2.90007148490223
4.96446454173322
5.09967653243646
5.33817196075347
4.86038033784945
5.65819292873576
5.18576397493895
5.28248828271735
4.68606611189604
4.56493556730272
1.66087543652419
2.36141876656311
3.59435010335037
1.05476968427901
2.1069298752043
2.98717425990311
1.70753657295204
5.26988431047328
3.38563513772319
2.90922011204535
4.91834705795614
4.98164786701964
1.84256478696413
4.00549296881807
3.22408590790617
5.09461604777052
2.43206738245005
2.87464572557302
0.0802565409956485
2.88631895053472
1.77658573341093
0.875176400727402
3.47493831591354
4.99174168866643
3.27159279305063
5.70171811388493
5.20775886577862
4.84753397891458
5.2213495733927
5.04712012388319
4.81368263807161
4.70074609412297
5.65076762835521
5.33151217890209
5.70299089341989
1.44483797006193
2.93343765686538
2.92726279290588
3.57843790962546
0.471612367920122
0.641704587029767
1.34667646350595
5.0217690269282
2.3041606717522
3.6576387978338
5.79500086851972
2.91967556835495
2.62624643693805
4.46612712217596
1.20413619595729
2.2458928628629
4.19026216696812
3.5186003325131
4.24960419200636
3.74748535275977
2.29514141737165
2.89152144231224
4.5485869475557
1.29581277803642
0.7340562481064
0.349888705441222
2.19509180328635
4.92768456824854
4.64674746262075
1.35516504292454
2.49421367553136
2.11961692487098
4.88879792369284
3.03643475856789
1.85938905126546
5.39500726882671
0.632030808092841
3.14638505557117
4.51515960163109
0.584723760385937
2.8369165674406
0.447786592120655
3.78825006496365
1.79202048441177
2.25651791353208
2.18640657954674
2.31166525204329
2.76045468056887
4.22923064945657
0.894427350008563
4.03253315729906
2.15244743000004
2.01562596798367
3.23701660070586
2.44985448891189
3.94568873792697
3.61557799043391
4.56807516456024
4.54004825116235
4.5454911407829
2.63598596468742
3.68318328631828
3.41927384493281
4.55335331062575
4.15524962622536
4.10072892288232
3.38391400428497
4.41992361338565
4.32757273295326
3.47379997808514
3.53871735131118
2.94907036109367
2.34323752932037
3.6791605519713
3.55585836669143
3.73252366669715
3.9169083300936
3.92266302111568
3.97606864934994
4.52325050592231
3.65003674207801
4.14653577701186
3.83472701365032
3.67690509212271
4.37332212083725
3.34111712405322
2.27253708825767
3.4426102567971
3.55239541752499
1.34853820149752
1.81154999872208
1.48844723673867
2.46077829216997
2.44162748388688
2.75199473652971
2.03293369616463
2.67586633771332
1.66438989032012
2.83951585968972
4.35305794864846
3.41996872132689
3.12960024377026
2.93597789166713
2.37525872555357
2.46761023687984
2.68048946234243
3.19947193534503
3.13938256628801
3.65387237571233
3.76412794615261
3.61719997046444
4.07553946167938
3.23059438080117
3.60090980460032